/*--------------------------------*- C++ -*----------------------------------*\
| =========                 |                                                 |
| \\      /  F ield         | OpenFOAM: The Open Source CFD Toolbox           |
|  \\    /   O peration     | Version:  7.0                                   |
|   \\  /    A nd           | Web:      www.OpenFOAM.org                      |
|    \\/     M anipulation  |                                                 |
\*---------------------------------------------------------------------------*/
FoamFile
{
    version     2.0;
    format      ascii;
    class       volScalarField;
    location    "0";
    object      epsilon;
}
// * * * * * * * * * * * * * * * * * * * * * * * * * * * * * * * * * * * * * //
#include      "ICfiles/initialConditions"
dimensions    [0 2 -3 0 0 0 0];



internalField uniform $epsilonIC;
boundaryField
{
    fixedStart
    {
        type            inletOutlet;
        inletValue      $internalField;
        value           $internalField;
    }
	fixedEnd
    {
        type            inletOutlet;
        inletValue      $internalField;
        value           $internalField;
    }	
	fixedStartTop
    {
        type            inletOutlet;
        inletValue      $internalField;
        value           $internalField;
    }	
	fixedBottom
    {
        type            epsilonWallFunction;
        value           $internalField;
    }	
	flumeFloor
    {
        type            epsilonWallFunction;
        value           $internalField;
    }
    fixedRight
    {
        type            epsilonWallFunction;
        value           $internalField;
    }
	fixedLeft
    {
        type            epsilonWallFunction;
        value           $internalField;
    }
	interface
    {
        type            epsilonWallFunction;
        value           $internalField;
    }
	fixedAtmosphere
    {
        type            inletOutlet;
        inletValue      $internalField;
        value           $internalField;
    }
}


// ************************************************************************* //
