# Force       
# CofR        : (6.000000e-03 4.000000e-02 0.000000e+00)
#
# Time        	total_x total_y total_z	pressure_x pressure_y pressure_z	viscous_x viscous_y viscous_z
0              -5.759824e-20 1.153656e-04 0.000000e+00 -5.759824e-20 1.153656e-04 0.000000e+00 0.000000e+00 0.000000e+00 0.000000e+00
0              -5.759824e-20 1.153656e-04 0.000000e+00 -5.759824e-20 1.153656e-04 0.000000e+00 0.000000e+00 0.000000e+00 0.000000e+00
0.0001         1.298095e-03 -5.638326e-04 2.493730e-15 1.294512e-03 -5.744905e-04 0.000000e+00 3.582808e-06 1.065791e-05 2.493730e-15
0.0001         1.298095e-03 -5.638326e-04 2.493730e-15 1.294512e-03 -5.744905e-04 0.000000e+00 3.582808e-06 1.065791e-05 2.493730e-15
0.0002         1.287529e-03 -5.457276e-04 -3.779867e-14 1.280440e-03 -5.672631e-04 0.000000e+00 7.088860e-06 2.153559e-05 -3.779867e-14
0.0002         1.287529e-03 -5.457276e-04 -3.779867e-14 1.280440e-03 -5.672631e-04 0.000000e+00 7.088860e-06 2.153559e-05 -3.779867e-14
0.0003         1.285246e-03 -5.302582e-04 7.623778e-14 1.274692e-03 -5.627742e-04 0.000000e+00 1.055332e-05 3.251598e-05 7.623778e-14
0.0004         1.286250e-03 -5.162409e-04 3.701610e-13 1.272259e-03 -5.597848e-04 0.000000e+00 1.399059e-05 4.354398e-05 3.701610e-13
0.0005         1.290758e-03 -5.039216e-04 2.147487e-13 1.273342e-03 -5.585330e-04 0.000000e+00 1.741573e-05 5.461146e-05 2.147487e-13
0.0006         1.296067e-03 -4.921559e-04 -1.088615e-12 1.275234e-03 -5.578699e-04 0.000000e+00 2.083357e-05 6.571396e-05 -1.088615e-12
0.0007         1.302531e-03 -4.810667e-04 -2.630159e-13 1.278281e-03 -5.579160e-04 0.000000e+00 2.424955e-05 7.684931e-05 -2.630159e-13
0.0008         1.307848e-03 -4.697456e-04 -2.665771e-13 1.280187e-03 -5.577513e-04 0.000000e+00 2.766141e-05 8.800571e-05 -2.665771e-13
0.0009         1.313346e-03 -4.586658e-04 1.906695e-13 1.282275e-03 -5.578433e-04 0.000000e+00 3.107070e-05 9.917757e-05 1.906695e-13
0.001          1.318628e-03 -4.476325e-04 1.455002e-13 1.284150e-03 -5.579920e-04 0.000000e+00 3.447797e-05 1.103595e-04 1.455002e-13
0.0011         1.323432e-03 -4.365695e-04 -1.650889e-12 1.285549e-03 -5.580955e-04 0.000000e+00 3.788221e-05 1.215260e-04 -1.650889e-12
0.0012         1.328389e-03 -4.256593e-04 -7.751158e-13 1.287105e-03 -5.583498e-04 0.000000e+00 4.128443e-05 1.326905e-04 -7.751158e-13
0.0013         1.332542e-03 -4.144756e-04 -6.786036e-13 1.287859e-03 -5.583309e-04 0.000000e+00 4.468247e-05 1.438553e-04 -6.786036e-13
0.0014         1.335985e-03 -4.030420e-04 -1.082793e-13 1.287910e-03 -5.580544e-04 0.000000e+00 4.807457e-05 1.550124e-04 -1.082793e-13
0.0015         1.340495e-03 -3.921390e-04 -4.721896e-13 1.289030e-03 -5.583020e-04 0.000000e+00 5.146443e-05 1.661630e-04 -4.721896e-13
0.0016         1.344917e-03 -3.812743e-04 -4.327308e-13 1.290065e-03 -5.585819e-04 0.000000e+00 5.485177e-05 1.773076e-04 -4.327308e-13
0.0017         1.349102e-03 -3.703356e-04 -1.250494e-15 1.290866e-03 -5.587804e-04 0.000000e+00 5.823597e-05 1.884448e-04 -1.250494e-15
0.0018         1.353837e-03 -3.596795e-04 1.670326e-13 1.292218e-03 -5.592556e-04 0.000000e+00 6.161889e-05 1.995761e-04 1.670326e-13
0.0019         1.357679e-03 -3.486536e-04 1.298013e-13 1.292681e-03 -5.593515e-04 0.000000e+00 6.499785e-05 2.106979e-04 1.298013e-13
0.002          1.361136e-03 -3.374797e-04 1.669207e-13 1.292764e-03 -5.592886e-04 0.000000e+00 6.837175e-05 2.218089e-04 1.669207e-13
0.0021         1.364822e-03 -3.264311e-04 1.993002e-13 1.293081e-03 -5.593408e-04 0.000000e+00 7.174137e-05 2.329098e-04 1.993002e-13
0.0022         1.368476e-03 -3.153861e-04 1.826734e-13 1.293370e-03 -5.593866e-04 0.000000e+00 7.510664e-05 2.440004e-04 1.826734e-13
0.0023         1.372035e-03 -3.043146e-04 1.353066e-13 1.293568e-03 -5.593953e-04 0.000000e+00 7.846730e-05 2.550806e-04 1.353066e-13
0.0024         1.375914e-03 -2.933996e-04 5.832914e-14 1.294090e-03 -5.595514e-04 0.000000e+00 8.182434e-05 2.661517e-04 5.832914e-14
0.0025         1.379553e-03 -2.823861e-04 -9.401351e-14 1.294376e-03 -5.595991e-04 0.000000e+00 8.517703e-05 2.772130e-04 -9.401351e-14
0.0026         1.383257e-03 -2.714095e-04 -2.312101e-13 1.294731e-03 -5.596743e-04 0.000000e+00 8.852553e-05 2.882648e-04 -2.312101e-13
0.0027         1.386927e-03 -2.604256e-04 -3.746791e-13 1.295057e-03 -5.597331e-04 0.000000e+00 9.186974e-05 2.993075e-04 -3.746791e-13
0.0028         1.390591e-03 -2.494438e-04 -4.273870e-13 1.295382e-03 -5.597850e-04 0.000000e+00 9.520961e-05 3.103413e-04 -4.273870e-13
0.0029         1.394253e-03 -2.384631e-04 -3.750808e-13 1.295708e-03 -5.598295e-04 0.000000e+00 9.854509e-05 3.213665e-04 -3.750808e-13
0.003          1.397913e-03 -2.274824e-04 -2.393431e-13 1.296036e-03 -5.598659e-04 0.000000e+00 1.018761e-04 3.323835e-04 -2.393431e-13
0.0031         1.401571e-03 -2.165012e-04 -1.230587e-13 1.296369e-03 -5.598939e-04 0.000000e+00 1.052027e-04 3.433927e-04 -1.230587e-13
0.0032         1.405232e-03 -2.055183e-04 9.890756e-14 1.296708e-03 -5.599130e-04 0.000000e+00 1.085247e-04 3.543947e-04 9.890756e-14
0.0033         1.408897e-03 -1.945337e-04 3.248726e-13 1.297055e-03 -5.599237e-04 0.000000e+00 1.118421e-04 3.653900e-04 3.248726e-13
0.0034         1.412568e-03 -1.835476e-04 3.689226e-13 1.297413e-03 -5.599265e-04 0.000000e+00 1.151548e-04 3.763790e-04 3.689226e-13
0.0035         1.416249e-03 -1.725594e-04 3.511322e-13 1.297786e-03 -5.599217e-04 0.000000e+00 1.184629e-04 3.873623e-04 3.511322e-13
0.0036         1.419946e-03 -1.615705e-04 3.296516e-13 1.298179e-03 -5.599112e-04 0.000000e+00 1.217663e-04 3.983406e-04 3.296516e-13
0.0037         1.423660e-03 -1.505800e-04 2.557318e-13 1.298595e-03 -5.598946e-04 0.000000e+00 1.250650e-04 4.093146e-04 2.557318e-13
0.0038         1.427391e-03 -1.395878e-04 1.813359e-13 1.299032e-03 -5.598726e-04 0.000000e+00 1.283589e-04 4.202848e-04 1.813359e-13
0.0039         1.431143e-03 -1.285931e-04 8.400629e-14 1.299495e-03 -5.598451e-04 0.000000e+00 1.316480e-04 4.312520e-04 8.400629e-14
0.004          1.434915e-03 -1.175959e-04 8.082874e-14 1.299982e-03 -5.598126e-04 0.000000e+00 1.349324e-04 4.422168e-04 8.082874e-14
0.0041         1.438708e-03 -1.065958e-04 6.698963e-14 1.300496e-03 -5.597758e-04 0.000000e+00 1.382120e-04 4.531800e-04 6.698963e-14
0.0042         1.442536e-03 -9.559335e-05 6.765153e-14 1.301049e-03 -5.597357e-04 0.000000e+00 1.414868e-04 4.641423e-04 6.765153e-14
0.0043         1.446338e-03 -8.458555e-05 6.354682e-14 1.301582e-03 -5.596892e-04 0.000000e+00 1.447567e-04 4.751037e-04 6.354682e-14
0.0044         1.450172e-03 -7.357560e-05 -7.254655e-15 1.302150e-03 -5.596404e-04 0.000000e+00 1.480218e-04 4.860648e-04 -7.254655e-15
0.0045         1.454058e-03 -6.256166e-05 -3.469561e-14 1.302776e-03 -5.595880e-04 0.000000e+00 1.512819e-04 4.970263e-04 -3.469561e-14
0.0046         1.457939e-03 -5.154178e-05 -4.570326e-14 1.303402e-03 -5.595292e-04 0.000000e+00 1.545372e-04 5.079874e-04 -4.570326e-14
0.0047         1.461889e-03 -4.050906e-05 -4.892931e-14 1.304102e-03 -5.594608e-04 0.000000e+00 1.577877e-04 5.189518e-04 -4.892931e-14
0.0048         1.466087e-03 -2.958298e-05 -5.163321e-14 1.305053e-03 -5.595027e-04 0.000000e+00 1.610340e-04 5.299197e-04 -5.163321e-14
0.0049         1.470087e-03 -1.857558e-05 -3.062663e-14 1.305811e-03 -5.594660e-04 0.000000e+00 1.642755e-04 5.408904e-04 -3.062663e-14
0.005          1.474319e-03 -7.648580e-06 -1.011185e-13 1.306806e-03 -5.595139e-04 0.000000e+00 1.675129e-04 5.518653e-04 -1.011185e-13
0.0051         1.478305e-03 3.400045e-06 -9.348117e-14 1.307559e-03 -5.594440e-04 0.000000e+00 1.707454e-04 5.628441e-04 -9.348117e-14
0.0052         1.482325e-03 1.444746e-05 -1.708457e-13 1.308352e-03 -5.593797e-04 0.000000e+00 1.739729e-04 5.738272e-04 -1.708457e-13
0.0053         1.486369e-03 2.549692e-05 -9.882905e-14 1.309174e-03 -5.593181e-04 0.000000e+00 1.771955e-04 5.848150e-04 -9.882905e-14
0.0054         1.490429e-03 3.654784e-05 -1.972043e-13 1.310016e-03 -5.592600e-04 0.000000e+00 1.804132e-04 5.958078e-04 -1.972043e-13
0.0055         1.494514e-03 4.760244e-05 -2.133447e-13 1.310888e-03 -5.592036e-04 0.000000e+00 1.836259e-04 6.068060e-04 -2.133447e-13
0.0056         1.498612e-03 5.866064e-05 -2.299414e-13 1.311778e-03 -5.591492e-04 0.000000e+00 1.868338e-04 6.178098e-04 -2.299414e-13
0.0057         1.502723e-03 6.972257e-05 -1.962260e-13 1.312686e-03 -5.590968e-04 0.000000e+00 1.900367e-04 6.288194e-04 -1.962260e-13
0.0058         1.506849e-03 8.078843e-05 -1.802646e-13 1.313614e-03 -5.590466e-04 0.000000e+00 1.932347e-04 6.398351e-04 -1.802646e-13
0.0059         1.510981e-03 9.186072e-05 -1.595583e-13 1.314553e-03 -5.589962e-04 0.000000e+00 1.964277e-04 6.508569e-04 -1.595583e-13
0.006          1.515114e-03 1.029408e-04 -1.611578e-13 1.315498e-03 -5.589443e-04 0.000000e+00 1.996157e-04 6.618851e-04 -1.611578e-13
0.0061         1.519247e-03 1.140285e-04 -1.499012e-13 1.316448e-03 -5.588911e-04 0.000000e+00 2.027987e-04 6.729196e-04 -1.499012e-13
0.0062         1.523379e-03 1.251242e-04 -1.466249e-13 1.317403e-03 -5.588363e-04 0.000000e+00 2.059766e-04 6.839605e-04 -1.466249e-13
0.0063         1.527506e-03 1.362283e-04 -1.434900e-13 1.318357e-03 -5.587796e-04 0.000000e+00 2.091493e-04 6.950078e-04 -1.434900e-13
0.0064         1.531629e-03 1.473404e-04 -1.406864e-13 1.319312e-03 -5.587212e-04 0.000000e+00 2.123169e-04 7.060617e-04 -1.406864e-13
0.0065         1.535746e-03 1.584606e-04 -1.362330e-13 1.320267e-03 -5.586613e-04 0.000000e+00 2.154792e-04 7.171219e-04 -1.362330e-13
0.0066         1.539856e-03 1.695889e-04 -1.339883e-13 1.321220e-03 -5.585997e-04 0.000000e+00 2.186361e-04 7.281886e-04 -1.339883e-13
0.0067         1.543958e-03 1.807251e-04 -1.316341e-13 1.322171e-03 -5.585366e-04 0.000000e+00 2.217878e-04 7.392617e-04 -1.316341e-13
0.0068         1.548036e-03 1.918711e-04 -2.151385e-13 1.323102e-03 -5.584700e-04 0.000000e+00 2.249340e-04 7.503410e-04 -2.151385e-13
0.0069         1.552145e-03 2.030186e-04 -2.184486e-13 1.324070e-03 -5.584082e-04 0.000000e+00 2.280747e-04 7.614269e-04 -2.184486e-13
0.007          1.556218e-03 2.141792e-04 -2.175186e-13 1.325008e-03 -5.583397e-04 0.000000e+00 2.312099e-04 7.725189e-04 -2.175186e-13
0.0071         1.560286e-03 2.253458e-04 -1.859938e-13 1.325947e-03 -5.582713e-04 0.000000e+00 2.343396e-04 7.836171e-04 -1.859938e-13
0.0072         1.564343e-03 2.365195e-04 -1.449206e-13 1.326880e-03 -5.582017e-04 0.000000e+00 2.374637e-04 7.947213e-04 -1.449206e-13
0.0073         1.568390e-03 2.476998e-04 -1.213091e-13 1.327808e-03 -5.581316e-04 0.000000e+00 2.405821e-04 8.058314e-04 -1.213091e-13
0.0074         1.572423e-03 2.588906e-04 -1.533332e-13 1.328728e-03 -5.580567e-04 0.000000e+00 2.436947e-04 8.169474e-04 -1.533332e-13
0.0075         1.576454e-03 2.700791e-04 -1.452526e-13 1.329652e-03 -5.579901e-04 0.000000e+00 2.468017e-04 8.280692e-04 -1.452526e-13
0.0076         1.580473e-03 2.812785e-04 -1.249112e-13 1.330570e-03 -5.579181e-04 0.000000e+00 2.499029e-04 8.391966e-04 -1.249112e-13
0.0077         1.584482e-03 2.924850e-04 -1.217496e-13 1.331484e-03 -5.578446e-04 0.000000e+00 2.529984e-04 8.503296e-04 -1.217496e-13
0.0078         1.588480e-03 3.036974e-04 -1.236617e-13 1.332392e-03 -5.577707e-04 0.000000e+00 2.560880e-04 8.614681e-04 -1.236617e-13
0.0079         1.592469e-03 3.149162e-04 -1.242477e-13 1.333297e-03 -5.576959e-04 0.000000e+00 2.591718e-04 8.726121e-04 -1.242477e-13
0.008          1.596448e-03 3.261415e-04 -1.205666e-13 1.334199e-03 -5.576201e-04 0.000000e+00 2.622495e-04 8.837616e-04 -1.205666e-13
0.0081         1.600428e-03 3.373732e-04 -1.241734e-13 1.335107e-03 -5.575436e-04 0.000000e+00 2.653212e-04 8.949168e-04 -1.241734e-13
0.0082         1.604355e-03 3.486131e-04 -1.248713e-13 1.335968e-03 -5.574637e-04 0.000000e+00 2.683867e-04 9.060768e-04 -1.248713e-13
0.0083         1.608250e-03 3.598597e-04 -1.241050e-13 1.336805e-03 -5.573816e-04 0.000000e+00 2.714457e-04 9.172414e-04 -1.241050e-13
0.0084         1.612186e-03 3.711108e-04 -1.237287e-13 1.337688e-03 -5.573008e-04 0.000000e+00 2.744984e-04 9.284115e-04 -1.237287e-13
0.0085         1.616107e-03 3.823687e-04 -1.323965e-13 1.338563e-03 -5.572185e-04 0.000000e+00 2.775446e-04 9.395873e-04 -1.323965e-13
0.0086         1.620010e-03 3.936335e-04 -1.328562e-13 1.339426e-03 -5.571352e-04 0.000000e+00 2.805841e-04 9.507687e-04 -1.328562e-13
0.0087         1.623899e-03 4.049046e-04 -1.282327e-13 1.340283e-03 -5.570512e-04 0.000000e+00 2.836169e-04 9.619559e-04 -1.282327e-13
0.0088         1.627764e-03 4.161812e-04 -1.294614e-13 1.341121e-03 -5.569678e-04 0.000000e+00 2.866427e-04 9.731490e-04 -1.294614e-13
0.0089         1.631629e-03 4.274946e-04 -1.197782e-13 1.341968e-03 -5.568503e-04 0.000000e+00 2.896619e-04 9.843449e-04 -1.197782e-13
0.009          1.635563e-03 4.388090e-04 -1.078020e-13 1.342889e-03 -5.567362e-04 0.000000e+00 2.926744e-04 9.955452e-04 -1.078020e-13
0.0091         1.639413e-03 4.501164e-04 -1.040952e-13 1.343733e-03 -5.566339e-04 0.000000e+00 2.956798e-04 1.006750e-03 -1.040952e-13
0.0092         1.643254e-03 4.614268e-04 -8.106745e-14 1.344576e-03 -5.565337e-04 0.000000e+00 2.986781e-04 1.017960e-03 -8.106745e-14
0.0093         1.647090e-03 4.727493e-04 -9.959687e-14 1.345421e-03 -5.564272e-04 0.000000e+00 3.016692e-04 1.029176e-03 -9.959687e-14
0.0094         1.650863e-03 4.840853e-04 -1.021986e-13 1.346210e-03 -5.563120e-04 0.000000e+00 3.046526e-04 1.040397e-03 -1.021986e-13
0.0095         1.654590e-03 4.954343e-04 -9.166678e-14 1.346961e-03 -5.561884e-04 0.000000e+00 3.076283e-04 1.051623e-03 -9.166678e-14
0.0096         1.658355e-03 5.067862e-04 -9.663363e-14 1.347759e-03 -5.560670e-04 0.000000e+00 3.105962e-04 1.062853e-03 -9.663363e-14
0.0097         1.661970e-03 5.182147e-04 -9.685401e-14 1.348415e-03 -5.558723e-04 0.000000e+00 3.135558e-04 1.074087e-03 -9.685401e-14
0.0098         1.665521e-03 5.296871e-04 -1.095792e-13 1.349014e-03 -5.556331e-04 0.000000e+00 3.165072e-04 1.085320e-03 -1.095792e-13
0.0099         1.669149e-03 5.410951e-04 -1.391673e-13 1.349699e-03 -5.554669e-04 0.000000e+00 3.194497e-04 1.096562e-03 -1.391673e-13
0.01           1.672804e-03 5.525196e-04 -1.683951e-13 1.350420e-03 -5.552878e-04 0.000000e+00 3.223836e-04 1.107807e-03 -1.683951e-13
0.0101         1.676486e-03 5.639148e-04 -1.709488e-13 1.351177e-03 -5.551438e-04 0.000000e+00 3.253089e-04 1.119059e-03 -1.709488e-13
0.0102         1.680149e-03 5.753286e-04 -2.026321e-13 1.351924e-03 -5.549863e-04 0.000000e+00 3.282254e-04 1.130315e-03 -2.026321e-13
0.0103         1.683807e-03 5.867467e-04 -2.098192e-13 1.352675e-03 -5.548298e-04 0.000000e+00 3.311329e-04 1.141576e-03 -2.098192e-13
0.0104         1.687459e-03 5.981720e-04 -2.167119e-13 1.353428e-03 -5.546715e-04 0.000000e+00 3.340314e-04 1.152844e-03 -2.167119e-13
0.0105         1.691102e-03 6.096050e-04 -2.245730e-13 1.354181e-03 -5.545110e-04 0.000000e+00 3.369207e-04 1.164116e-03 -2.245730e-13
0.0106         1.694738e-03 6.210464e-04 -2.268427e-13 1.354937e-03 -5.543478e-04 0.000000e+00 3.398008e-04 1.175394e-03 -2.268427e-13
0.0107         1.698356e-03 6.324978e-04 -2.836647e-13 1.355685e-03 -5.541802e-04 0.000000e+00 3.426714e-04 1.186678e-03 -2.836647e-13
0.0108         1.701966e-03 6.439583e-04 -2.442977e-13 1.356433e-03 -5.540094e-04 0.000000e+00 3.455326e-04 1.197968e-03 -2.442977e-13
0.0109         1.705565e-03 6.554276e-04 -2.530518e-13 1.357181e-03 -5.538356e-04 0.000000e+00 3.483842e-04 1.209263e-03 -2.530518e-13
0.011          1.709155e-03 6.669061e-04 -2.560385e-13 1.357929e-03 -5.536587e-04 0.000000e+00 3.512261e-04 1.220565e-03 -2.560385e-13
0.0111         1.712734e-03 6.783945e-04 -3.107720e-13 1.358676e-03 -5.534781e-04 0.000000e+00 3.540583e-04 1.231873e-03 -3.107720e-13
0.0112         1.716303e-03 6.898928e-04 -2.831307e-13 1.359422e-03 -5.532941e-04 0.000000e+00 3.568806e-04 1.243187e-03 -2.831307e-13
0.0113         1.719865e-03 7.014010e-04 -3.376242e-13 1.360172e-03 -5.531068e-04 0.000000e+00 3.596930e-04 1.254508e-03 -3.376242e-13
0.0114         1.723429e-03 7.129191e-04 -3.543434e-13 1.360934e-03 -5.529166e-04 0.000000e+00 3.624955e-04 1.265836e-03 -3.543434e-13
0.0115         1.726930e-03 7.244500e-04 -3.820963e-13 1.361642e-03 -5.527198e-04 0.000000e+00 3.652879e-04 1.277170e-03 -3.820963e-13
0.0116         1.730394e-03 7.359927e-04 -4.031794e-13 1.362324e-03 -5.525171e-04 0.000000e+00 3.680701e-04 1.288510e-03 -4.031794e-13
0.0117         1.734051e-03 7.474827e-04 -2.828132e-13 1.363209e-03 -5.523751e-04 0.000000e+00 3.708425e-04 1.299858e-03 -2.828132e-13
0.0118         1.737709e-03 7.589710e-04 -3.122958e-13 1.364104e-03 -5.522426e-04 0.000000e+00 3.736052e-04 1.311214e-03 -3.122958e-13
0.0119         1.741378e-03 7.704688e-04 -1.675574e-13 1.365019e-03 -5.521088e-04 0.000000e+00 3.763582e-04 1.322578e-03 -1.675574e-13
