<?xml version="1.0"?>
<VTKFile type="UnstructuredGrid" version="1.0" byte_order="LittleEndian" compressor="vtkZLibDataCompressor">
  <UnstructuredGrid>
    <Piece NumberOfPoints="49" NumberOfCells="1">
      <Points>
        <DataArray type="Float64" Name="Points" NumberOfComponents="3" format="ascii">
          6.00000e-03 0.00000e+00 5.00000e-03 
          6.00000e-03 1.66667e-03 5.00000e-03 
          6.00000e-03 3.33333e-03 5.00000e-03 
          6.00000e-03 5.00000e-03 5.00000e-03 
          6.00000e-03 6.66667e-03 5.00000e-03 
          6.00000e-03 8.33333e-03 5.00000e-03 
          6.00000e-03 1.00000e-02 5.00000e-03 
          6.00000e-03 1.16667e-02 5.00000e-03 
          6.00000e-03 1.33333e-02 5.00000e-03 
          6.00000e-03 1.50000e-02 5.00000e-03 
          6.00000e-03 1.66667e-02 5.00000e-03 
          6.00000e-03 1.83333e-02 5.00000e-03 
          6.00000e-03 2.00000e-02 5.00000e-03 
          6.00000e-03 2.16667e-02 5.00000e-03 
          6.00000e-03 2.33333e-02 5.00000e-03 
          6.00000e-03 2.50000e-02 5.00000e-03 
          6.00000e-03 2.66667e-02 5.00000e-03 
          6.00000e-03 2.83333e-02 5.00000e-03 
          6.00000e-03 3.00000e-02 5.00000e-03 
          6.00000e-03 3.16667e-02 5.00000e-03 
          6.00000e-03 3.33333e-02 5.00000e-03 
          6.00000e-03 3.50000e-02 5.00000e-03 
          6.00000e-03 3.66667e-02 5.00000e-03 
          6.00000e-03 3.83333e-02 5.00000e-03 
          6.00000e-03 4.00000e-02 5.00000e-03 
          6.00000e-03 4.16667e-02 5.00000e-03 
          6.00000e-03 4.33333e-02 5.00000e-03 
          6.00000e-03 4.50000e-02 5.00000e-03 
          6.00000e-03 4.66667e-02 5.00000e-03 
          6.00000e-03 4.83333e-02 5.00000e-03 
          6.00000e-03 5.00000e-02 5.00000e-03 
          6.00000e-03 5.16667e-02 5.00000e-03 
          6.00000e-03 5.33333e-02 5.00000e-03 
          6.00000e-03 5.50000e-02 5.00000e-03 
          6.00000e-03 5.66667e-02 5.00000e-03 
          6.00000e-03 5.83333e-02 5.00000e-03 
          6.00000e-03 6.00000e-02 5.00000e-03 
          6.00000e-03 6.16667e-02 5.00000e-03 
          6.00000e-03 6.33333e-02 5.00000e-03 
          6.00000e-03 6.50000e-02 5.00000e-03 
          6.00000e-03 6.66667e-02 5.00000e-03 
          6.00000e-03 6.83333e-02 5.00000e-03 
          6.00000e-03 7.00000e-02 5.00000e-03 
          6.00000e-03 7.16667e-02 5.00000e-03 
          6.00000e-03 7.33333e-02 5.00000e-03 
          6.00000e-03 7.50000e-02 5.00000e-03 
          6.00000e-03 7.66667e-02 5.00000e-03 
          6.00000e-03 7.83333e-02 5.00000e-03 
          6.00000e-03 8.00000e-02 5.00000e-03 
        </DataArray>
      </Points>
      <Cells>
        <DataArray type="Int64" Name="connectivity" format="ascii">
          0
          1
          2
          3
          4
          5
          6
          7
          8
          9
          10
          11
          12
          13
          14
          15
          16
          17
          18
          19
          20
          21
          22
          23
          24
          25
          26
          27
          28
          29
          30
          31
          32
          33
          34
          35
          36
          37
          38
          39
          40
          41
          42
          43
          44
          45
          46
          47
          48
        </DataArray>
        <DataArray type="Int64" Name="offsets" format="ascii">
          49
        </DataArray>
        <DataArray type="Int64" Name="types" format="ascii">
          2
        </DataArray>
      </Cells>
      <PointData>
        <DataArray type="Int64" Name="NodeTag" format="ascii">
          0
          1
          2
          3
          4
          5
          6
          7
          8
          9
          10
          11
          12
          13
          14
          15
          16
          17
          18
          19
          20
          21
          22
          23
          24
          25
          26
          27
          28
          29
          30
          31
          32
          33
          34
          35
          36
          37
          38
          39
          40
          41
          42
          43
          44
          45
          46
          47
          48
        </DataArray>
        <DataArray type="Float64" Name="Velocity" NumberOfComponents="3" format="ascii">
          0.00000e+00 0.00000e+00 0.00000e+00 
          0.00000e+00 0.00000e+00 0.00000e+00 
          0.00000e+00 0.00000e+00 0.00000e+00 
          0.00000e+00 0.00000e+00 0.00000e+00 
          0.00000e+00 0.00000e+00 0.00000e+00 
          0.00000e+00 0.00000e+00 0.00000e+00 
          0.00000e+00 0.00000e+00 0.00000e+00 
          0.00000e+00 0.00000e+00 0.00000e+00 
          0.00000e+00 0.00000e+00 0.00000e+00 
          0.00000e+00 0.00000e+00 0.00000e+00 
          0.00000e+00 0.00000e+00 0.00000e+00 
          0.00000e+00 0.00000e+00 0.00000e+00 
          0.00000e+00 0.00000e+00 0.00000e+00 
          0.00000e+00 0.00000e+00 0.00000e+00 
          0.00000e+00 0.00000e+00 0.00000e+00 
          0.00000e+00 0.00000e+00 0.00000e+00 
          0.00000e+00 0.00000e+00 0.00000e+00 
          0.00000e+00 0.00000e+00 0.00000e+00 
          0.00000e+00 0.00000e+00 0.00000e+00 
          0.00000e+00 0.00000e+00 0.00000e+00 
          0.00000e+00 0.00000e+00 0.00000e+00 
          0.00000e+00 0.00000e+00 0.00000e+00 
          0.00000e+00 0.00000e+00 0.00000e+00 
          0.00000e+00 0.00000e+00 0.00000e+00 
          0.00000e+00 0.00000e+00 0.00000e+00 
          0.00000e+00 0.00000e+00 0.00000e+00 
          0.00000e+00 0.00000e+00 0.00000e+00 
          0.00000e+00 0.00000e+00 0.00000e+00 
          0.00000e+00 0.00000e+00 0.00000e+00 
          0.00000e+00 0.00000e+00 0.00000e+00 
          0.00000e+00 0.00000e+00 0.00000e+00 
          0.00000e+00 0.00000e+00 0.00000e+00 
          0.00000e+00 0.00000e+00 0.00000e+00 
          0.00000e+00 0.00000e+00 0.00000e+00 
          0.00000e+00 0.00000e+00 0.00000e+00 
          0.00000e+00 0.00000e+00 0.00000e+00 
          0.00000e+00 0.00000e+00 0.00000e+00 
          0.00000e+00 0.00000e+00 0.00000e+00 
          0.00000e+00 0.00000e+00 0.00000e+00 
          0.00000e+00 0.00000e+00 0.00000e+00 
          0.00000e+00 0.00000e+00 0.00000e+00 
          0.00000e+00 0.00000e+00 0.00000e+00 
          0.00000e+00 0.00000e+00 0.00000e+00 
          0.00000e+00 0.00000e+00 0.00000e+00 
          0.00000e+00 0.00000e+00 0.00000e+00 
          0.00000e+00 0.00000e+00 0.00000e+00 
          0.00000e+00 0.00000e+00 0.00000e+00 
          0.00000e+00 0.00000e+00 0.00000e+00 
          0.00000e+00 0.00000e+00 0.00000e+00 
        </DataArray>
        <DataArray type="Float64" Name="Displacement" NumberOfComponents="3" format="ascii">
          0.00000e+00 0.00000e+00 0.00000e+00 
          0.00000e+00 0.00000e+00 0.00000e+00 
          0.00000e+00 0.00000e+00 0.00000e+00 
          0.00000e+00 0.00000e+00 0.00000e+00 
          0.00000e+00 0.00000e+00 0.00000e+00 
          0.00000e+00 0.00000e+00 0.00000e+00 
          0.00000e+00 0.00000e+00 0.00000e+00 
          0.00000e+00 0.00000e+00 0.00000e+00 
          0.00000e+00 0.00000e+00 0.00000e+00 
          0.00000e+00 0.00000e+00 0.00000e+00 
          0.00000e+00 0.00000e+00 0.00000e+00 
          0.00000e+00 0.00000e+00 0.00000e+00 
          0.00000e+00 0.00000e+00 0.00000e+00 
          0.00000e+00 0.00000e+00 0.00000e+00 
          0.00000e+00 0.00000e+00 0.00000e+00 
          0.00000e+00 0.00000e+00 0.00000e+00 
          0.00000e+00 0.00000e+00 0.00000e+00 
          0.00000e+00 0.00000e+00 0.00000e+00 
          0.00000e+00 0.00000e+00 0.00000e+00 
          0.00000e+00 0.00000e+00 0.00000e+00 
          0.00000e+00 0.00000e+00 0.00000e+00 
          0.00000e+00 0.00000e+00 0.00000e+00 
          0.00000e+00 0.00000e+00 0.00000e+00 
          0.00000e+00 0.00000e+00 0.00000e+00 
          0.00000e+00 0.00000e+00 0.00000e+00 
          0.00000e+00 0.00000e+00 0.00000e+00 
          0.00000e+00 0.00000e+00 0.00000e+00 
          0.00000e+00 0.00000e+00 0.00000e+00 
          0.00000e+00 0.00000e+00 0.00000e+00 
          0.00000e+00 0.00000e+00 0.00000e+00 
          0.00000e+00 0.00000e+00 0.00000e+00 
          0.00000e+00 0.00000e+00 0.00000e+00 
          0.00000e+00 0.00000e+00 0.00000e+00 
          0.00000e+00 0.00000e+00 0.00000e+00 
          0.00000e+00 0.00000e+00 0.00000e+00 
          0.00000e+00 0.00000e+00 0.00000e+00 
          0.00000e+00 0.00000e+00 0.00000e+00 
          0.00000e+00 0.00000e+00 0.00000e+00 
          0.00000e+00 0.00000e+00 0.00000e+00 
          0.00000e+00 0.00000e+00 0.00000e+00 
          0.00000e+00 0.00000e+00 0.00000e+00 
          0.00000e+00 0.00000e+00 0.00000e+00 
          0.00000e+00 0.00000e+00 0.00000e+00 
          0.00000e+00 0.00000e+00 0.00000e+00 
          0.00000e+00 0.00000e+00 0.00000e+00 
          0.00000e+00 0.00000e+00 0.00000e+00 
          0.00000e+00 0.00000e+00 0.00000e+00 
          0.00000e+00 0.00000e+00 0.00000e+00 
          0.00000e+00 0.00000e+00 0.00000e+00 
        </DataArray>
        <DataArray type="Float64" Name="IncrDisplacement" NumberOfComponents="3" format="ascii">
          0.00000e+00 0.00000e+00 0.00000e+00 
          0.00000e+00 0.00000e+00 0.00000e+00 
          0.00000e+00 0.00000e+00 0.00000e+00 
          0.00000e+00 0.00000e+00 0.00000e+00 
          0.00000e+00 0.00000e+00 0.00000e+00 
          0.00000e+00 0.00000e+00 0.00000e+00 
          0.00000e+00 0.00000e+00 0.00000e+00 
          0.00000e+00 0.00000e+00 0.00000e+00 
          0.00000e+00 0.00000e+00 0.00000e+00 
          0.00000e+00 0.00000e+00 0.00000e+00 
          0.00000e+00 0.00000e+00 0.00000e+00 
          0.00000e+00 0.00000e+00 0.00000e+00 
          0.00000e+00 0.00000e+00 0.00000e+00 
          0.00000e+00 0.00000e+00 0.00000e+00 
          0.00000e+00 0.00000e+00 0.00000e+00 
          0.00000e+00 0.00000e+00 0.00000e+00 
          0.00000e+00 0.00000e+00 0.00000e+00 
          0.00000e+00 0.00000e+00 0.00000e+00 
          0.00000e+00 0.00000e+00 0.00000e+00 
          0.00000e+00 0.00000e+00 0.00000e+00 
          0.00000e+00 0.00000e+00 0.00000e+00 
          0.00000e+00 0.00000e+00 0.00000e+00 
          0.00000e+00 0.00000e+00 0.00000e+00 
          0.00000e+00 0.00000e+00 0.00000e+00 
          0.00000e+00 0.00000e+00 0.00000e+00 
          0.00000e+00 0.00000e+00 0.00000e+00 
          0.00000e+00 0.00000e+00 0.00000e+00 
          0.00000e+00 0.00000e+00 0.00000e+00 
          0.00000e+00 0.00000e+00 0.00000e+00 
          0.00000e+00 0.00000e+00 0.00000e+00 
          0.00000e+00 0.00000e+00 0.00000e+00 
          0.00000e+00 0.00000e+00 0.00000e+00 
          0.00000e+00 0.00000e+00 0.00000e+00 
          0.00000e+00 0.00000e+00 0.00000e+00 
          0.00000e+00 0.00000e+00 0.00000e+00 
          0.00000e+00 0.00000e+00 0.00000e+00 
          0.00000e+00 0.00000e+00 0.00000e+00 
          0.00000e+00 0.00000e+00 0.00000e+00 
          0.00000e+00 0.00000e+00 0.00000e+00 
          0.00000e+00 0.00000e+00 0.00000e+00 
          0.00000e+00 0.00000e+00 0.00000e+00 
          0.00000e+00 0.00000e+00 0.00000e+00 
          0.00000e+00 0.00000e+00 0.00000e+00 
          0.00000e+00 0.00000e+00 0.00000e+00 
          0.00000e+00 0.00000e+00 0.00000e+00 
          0.00000e+00 0.00000e+00 0.00000e+00 
          0.00000e+00 0.00000e+00 0.00000e+00 
          0.00000e+00 0.00000e+00 0.00000e+00 
          0.00000e+00 0.00000e+00 0.00000e+00 
        </DataArray>
        <DataArray type="Float64" Name="Acceleration" NumberOfComponents="3" format="ascii">
          0.00000e+00 0.00000e+00 0.00000e+00 
          0.00000e+00 0.00000e+00 -0.00000e+00 
          0.00000e+00 0.00000e+00 0.00000e+00 
          0.00000e+00 0.00000e+00 0.00000e+00 
          0.00000e+00 0.00000e+00 0.00000e+00 
          0.00000e+00 0.00000e+00 0.00000e+00 
          0.00000e+00 0.00000e+00 0.00000e+00 
          0.00000e+00 0.00000e+00 0.00000e+00 
          0.00000e+00 0.00000e+00 0.00000e+00 
          0.00000e+00 0.00000e+00 0.00000e+00 
          0.00000e+00 0.00000e+00 0.00000e+00 
          0.00000e+00 0.00000e+00 0.00000e+00 
          0.00000e+00 0.00000e+00 0.00000e+00 
          0.00000e+00 0.00000e+00 0.00000e+00 
          0.00000e+00 0.00000e+00 0.00000e+00 
          0.00000e+00 0.00000e+00 0.00000e+00 
          0.00000e+00 0.00000e+00 0.00000e+00 
          0.00000e+00 0.00000e+00 0.00000e+00 
          0.00000e+00 0.00000e+00 0.00000e+00 
          0.00000e+00 0.00000e+00 0.00000e+00 
          0.00000e+00 0.00000e+00 0.00000e+00 
          0.00000e+00 0.00000e+00 0.00000e+00 
          0.00000e+00 0.00000e+00 0.00000e+00 
          0.00000e+00 0.00000e+00 0.00000e+00 
          0.00000e+00 0.00000e+00 0.00000e+00 
          0.00000e+00 0.00000e+00 0.00000e+00 
          0.00000e+00 0.00000e+00 0.00000e+00 
          0.00000e+00 0.00000e+00 0.00000e+00 
          0.00000e+00 0.00000e+00 0.00000e+00 
          0.00000e+00 0.00000e+00 0.00000e+00 
          0.00000e+00 0.00000e+00 0.00000e+00 
          0.00000e+00 0.00000e+00 0.00000e+00 
          0.00000e+00 0.00000e+00 0.00000e+00 
          0.00000e+00 0.00000e+00 0.00000e+00 
          0.00000e+00 0.00000e+00 0.00000e+00 
          0.00000e+00 0.00000e+00 0.00000e+00 
          0.00000e+00 0.00000e+00 0.00000e+00 
          0.00000e+00 0.00000e+00 0.00000e+00 
          0.00000e+00 0.00000e+00 0.00000e+00 
          0.00000e+00 0.00000e+00 0.00000e+00 
          0.00000e+00 0.00000e+00 0.00000e+00 
          0.00000e+00 0.00000e+00 0.00000e+00 
          0.00000e+00 0.00000e+00 0.00000e+00 
          0.00000e+00 0.00000e+00 0.00000e+00 
          0.00000e+00 0.00000e+00 0.00000e+00 
          0.00000e+00 0.00000e+00 0.00000e+00 
          0.00000e+00 0.00000e+00 0.00000e+00 
          0.00000e+00 0.00000e+00 0.00000e+00 
          0.00000e+00 0.00000e+00 0.00000e+00 
        </DataArray>
        <DataArray type="Float64" Name="Pressure" format="ascii">
          0.00000e+00
          0.00000e+00
          0.00000e+00
          0.00000e+00
          0.00000e+00
          0.00000e+00
          0.00000e+00
          0.00000e+00
          0.00000e+00
          0.00000e+00
          0.00000e+00
          0.00000e+00
          0.00000e+00
          0.00000e+00
          0.00000e+00
          0.00000e+00
          0.00000e+00
          0.00000e+00
          0.00000e+00
          0.00000e+00
          0.00000e+00
          0.00000e+00
          0.00000e+00
          0.00000e+00
          0.00000e+00
          0.00000e+00
          0.00000e+00
          0.00000e+00
          0.00000e+00
          0.00000e+00
          0.00000e+00
          0.00000e+00
          0.00000e+00
          0.00000e+00
          0.00000e+00
          0.00000e+00
          0.00000e+00
          0.00000e+00
          0.00000e+00
          0.00000e+00
          0.00000e+00
          0.00000e+00
          0.00000e+00
          0.00000e+00
          0.00000e+00
          0.00000e+00
          0.00000e+00
          0.00000e+00
          0.00000e+00
        </DataArray>
        <DataArray type="Float64" Name="Reaction" NumberOfComponents="3" format="ascii">
          0.00000e+00 0.00000e+00 0.00000e+00 
          0.00000e+00 0.00000e+00 0.00000e+00 
          0.00000e+00 0.00000e+00 0.00000e+00 
          0.00000e+00 0.00000e+00 0.00000e+00 
          0.00000e+00 0.00000e+00 0.00000e+00 
          0.00000e+00 0.00000e+00 0.00000e+00 
          0.00000e+00 0.00000e+00 0.00000e+00 
          0.00000e+00 0.00000e+00 0.00000e+00 
          0.00000e+00 0.00000e+00 0.00000e+00 
          0.00000e+00 0.00000e+00 0.00000e+00 
          0.00000e+00 0.00000e+00 0.00000e+00 
          0.00000e+00 0.00000e+00 0.00000e+00 
          0.00000e+00 0.00000e+00 0.00000e+00 
          0.00000e+00 0.00000e+00 0.00000e+00 
          0.00000e+00 0.00000e+00 0.00000e+00 
          0.00000e+00 0.00000e+00 0.00000e+00 
          0.00000e+00 0.00000e+00 0.00000e+00 
          0.00000e+00 0.00000e+00 0.00000e+00 
          0.00000e+00 0.00000e+00 0.00000e+00 
          0.00000e+00 0.00000e+00 0.00000e+00 
          0.00000e+00 0.00000e+00 0.00000e+00 
          0.00000e+00 0.00000e+00 0.00000e+00 
          0.00000e+00 0.00000e+00 0.00000e+00 
          0.00000e+00 0.00000e+00 0.00000e+00 
          0.00000e+00 0.00000e+00 0.00000e+00 
          0.00000e+00 0.00000e+00 0.00000e+00 
          0.00000e+00 0.00000e+00 0.00000e+00 
          0.00000e+00 0.00000e+00 0.00000e+00 
          0.00000e+00 0.00000e+00 0.00000e+00 
          0.00000e+00 0.00000e+00 0.00000e+00 
          0.00000e+00 0.00000e+00 0.00000e+00 
          0.00000e+00 0.00000e+00 0.00000e+00 
          0.00000e+00 0.00000e+00 0.00000e+00 
          0.00000e+00 0.00000e+00 0.00000e+00 
          0.00000e+00 0.00000e+00 0.00000e+00 
          0.00000e+00 0.00000e+00 0.00000e+00 
          0.00000e+00 0.00000e+00 0.00000e+00 
          0.00000e+00 0.00000e+00 0.00000e+00 
          0.00000e+00 0.00000e+00 0.00000e+00 
          0.00000e+00 0.00000e+00 0.00000e+00 
          0.00000e+00 0.00000e+00 0.00000e+00 
          0.00000e+00 0.00000e+00 0.00000e+00 
          0.00000e+00 0.00000e+00 0.00000e+00 
          0.00000e+00 0.00000e+00 0.00000e+00 
          0.00000e+00 0.00000e+00 0.00000e+00 
          0.00000e+00 0.00000e+00 0.00000e+00 
          0.00000e+00 0.00000e+00 0.00000e+00 
          0.00000e+00 0.00000e+00 0.00000e+00 
          0.00000e+00 0.00000e+00 0.00000e+00 
        </DataArray>
        <DataArray type="Float64" Name="UnbalancedLoad" NumberOfComponents="3" format="ascii">
          0.00000e+00 0.00000e+00 0.00000e+00 
          0.00000e+00 0.00000e+00 0.00000e+00 
          0.00000e+00 0.00000e+00 0.00000e+00 
          0.00000e+00 0.00000e+00 0.00000e+00 
          0.00000e+00 0.00000e+00 0.00000e+00 
          0.00000e+00 0.00000e+00 0.00000e+00 
          0.00000e+00 0.00000e+00 0.00000e+00 
          0.00000e+00 0.00000e+00 0.00000e+00 
          0.00000e+00 0.00000e+00 0.00000e+00 
          0.00000e+00 0.00000e+00 0.00000e+00 
          0.00000e+00 0.00000e+00 0.00000e+00 
          0.00000e+00 0.00000e+00 0.00000e+00 
          0.00000e+00 0.00000e+00 0.00000e+00 
          0.00000e+00 0.00000e+00 0.00000e+00 
          0.00000e+00 0.00000e+00 0.00000e+00 
          0.00000e+00 0.00000e+00 0.00000e+00 
          0.00000e+00 0.00000e+00 0.00000e+00 
          0.00000e+00 0.00000e+00 0.00000e+00 
          0.00000e+00 0.00000e+00 0.00000e+00 
          0.00000e+00 0.00000e+00 0.00000e+00 
          0.00000e+00 0.00000e+00 0.00000e+00 
          0.00000e+00 0.00000e+00 0.00000e+00 
          0.00000e+00 0.00000e+00 0.00000e+00 
          0.00000e+00 0.00000e+00 0.00000e+00 
          0.00000e+00 0.00000e+00 0.00000e+00 
          0.00000e+00 0.00000e+00 0.00000e+00 
          0.00000e+00 0.00000e+00 0.00000e+00 
          0.00000e+00 0.00000e+00 0.00000e+00 
          0.00000e+00 0.00000e+00 0.00000e+00 
          0.00000e+00 0.00000e+00 0.00000e+00 
          0.00000e+00 0.00000e+00 0.00000e+00 
          0.00000e+00 0.00000e+00 0.00000e+00 
          0.00000e+00 0.00000e+00 0.00000e+00 
          0.00000e+00 0.00000e+00 0.00000e+00 
          0.00000e+00 0.00000e+00 0.00000e+00 
          0.00000e+00 0.00000e+00 0.00000e+00 
          0.00000e+00 0.00000e+00 0.00000e+00 
          0.00000e+00 0.00000e+00 0.00000e+00 
          0.00000e+00 0.00000e+00 0.00000e+00 
          0.00000e+00 0.00000e+00 0.00000e+00 
          0.00000e+00 0.00000e+00 0.00000e+00 
          0.00000e+00 0.00000e+00 0.00000e+00 
          0.00000e+00 0.00000e+00 0.00000e+00 
          0.00000e+00 0.00000e+00 0.00000e+00 
          0.00000e+00 0.00000e+00 0.00000e+00 
          0.00000e+00 0.00000e+00 0.00000e+00 
          0.00000e+00 0.00000e+00 0.00000e+00 
          0.00000e+00 0.00000e+00 0.00000e+00 
          0.00000e+00 0.00000e+00 0.00000e+00 
        </DataArray>
        <DataArray type="Float64" Name="NodeMass" NumberOfComponents="3" format="ascii">
          4.89796e-04 4.89796e-04 4.89796e-04 
          4.89796e-04 4.89796e-04 4.89796e-04 
          4.89796e-04 4.89796e-04 4.89796e-04 
          4.89796e-04 4.89796e-04 4.89796e-04 
          4.89796e-04 4.89796e-04 4.89796e-04 
          4.89796e-04 4.89796e-04 4.89796e-04 
          4.89796e-04 4.89796e-04 4.89796e-04 
          4.89796e-04 4.89796e-04 4.89796e-04 
          4.89796e-04 4.89796e-04 4.89796e-04 
          4.89796e-04 4.89796e-04 4.89796e-04 
          4.89796e-04 4.89796e-04 4.89796e-04 
          4.89796e-04 4.89796e-04 4.89796e-04 
          4.89796e-04 4.89796e-04 4.89796e-04 
          4.89796e-04 4.89796e-04 4.89796e-04 
          4.89796e-04 4.89796e-04 4.89796e-04 
          4.89796e-04 4.89796e-04 4.89796e-04 
          4.89796e-04 4.89796e-04 4.89796e-04 
          4.89796e-04 4.89796e-04 4.89796e-04 
          4.89796e-04 4.89796e-04 4.89796e-04 
          4.89796e-04 4.89796e-04 4.89796e-04 
          4.89796e-04 4.89796e-04 4.89796e-04 
          4.89796e-04 4.89796e-04 4.89796e-04 
          4.89796e-04 4.89796e-04 4.89796e-04 
          4.89796e-04 4.89796e-04 4.89796e-04 
          4.89796e-04 4.89796e-04 4.89796e-04 
          4.89796e-04 4.89796e-04 4.89796e-04 
          4.89796e-04 4.89796e-04 4.89796e-04 
          4.89796e-04 4.89796e-04 4.89796e-04 
          4.89796e-04 4.89796e-04 4.89796e-04 
          4.89796e-04 4.89796e-04 4.89796e-04 
          4.89796e-04 4.89796e-04 4.89796e-04 
          4.89796e-04 4.89796e-04 4.89796e-04 
          4.89796e-04 4.89796e-04 4.89796e-04 
          4.89796e-04 4.89796e-04 4.89796e-04 
          4.89796e-04 4.89796e-04 4.89796e-04 
          4.89796e-04 4.89796e-04 4.89796e-04 
          4.89796e-04 4.89796e-04 4.89796e-04 
          4.89796e-04 4.89796e-04 4.89796e-04 
          4.89796e-04 4.89796e-04 4.89796e-04 
          4.89796e-04 4.89796e-04 4.89796e-04 
          4.89796e-04 4.89796e-04 4.89796e-04 
          4.89796e-04 4.89796e-04 4.89796e-04 
          4.89796e-04 4.89796e-04 4.89796e-04 
          4.89796e-04 4.89796e-04 4.89796e-04 
          4.89796e-04 4.89796e-04 4.89796e-04 
          4.89796e-04 4.89796e-04 4.89796e-04 
          4.89796e-04 4.89796e-04 4.89796e-04 
          4.89796e-04 4.89796e-04 4.89796e-04 
          4.89796e-04 4.89796e-04 4.89796e-04 
        </DataArray>
      </PointData>
      <CellData>
        <DataArray type="Int64" Name="ElementTag" format="ascii">
          0
        </DataArray>
      </CellData>
    </Piece>
  </UnstructuredGrid>
</VTKFile>
