# Force       
# CofR        : (6.000000e-03 4.000000e-02 0.000000e+00)
#
# Time        	total_x total_y total_z	pressure_x pressure_y pressure_z	viscous_x viscous_y viscous_z
0.0001         1.298095e-03 -5.638326e-04 3.211816e-14 1.294512e-03 -5.744905e-04 0.000000e+00 3.582808e-06 1.065791e-05 3.211816e-14
0.0002         1.287528e-03 -5.457270e-04 6.094765e-14 1.280439e-03 -5.672627e-04 0.000000e+00 7.088856e-06 2.153565e-05 6.094765e-14
0.0003         1.285245e-03 -5.302586e-04 1.796685e-14 1.274692e-03 -5.627746e-04 0.000000e+00 1.055332e-05 3.251597e-05 1.796685e-14
0.0004         1.286247e-03 -5.162409e-04 2.690665e-13 1.272256e-03 -5.597848e-04 0.000000e+00 1.399058e-05 4.354394e-05 2.690665e-13
0.0005         1.290766e-03 -5.039215e-04 3.270086e-13 1.273350e-03 -5.585329e-04 0.000000e+00 1.741574e-05 5.461146e-05 3.270086e-13
