/*--------------------------------*- C++ -*----------------------------------*\
| =========                 |                                                 |
| \\      /  F ield         | OpenFOAM: The Open Source CFD Toolbox           |
|  \\    /   O peration     | Version:  7.0                                   |
|   \\  /    A nd           | Web:      www.OpenFOAM.org                      |
|    \\/     M anipulation  |                                                 |
\*---------------------------------------------------------------------------*/
FoamFile
{
    version     2.0;
    format      ascii;
    class       volScalarField;
    location    "0";
    object      omega;
}
// * * * * * * * * * * * * * * * * * * * * * * * * * * * * * * * * * * * * * //
#include      "ICfiles/initialConditions"
dimensions    [0 0 -1 0 0 0 0];
internalField uniform $omegaIC;
boundaryField
{
    paddle
    {
        type            omegaWallFunction;
        value           $internalField;
    }
    comprBottom
    {
        type            omegaWallFunction;
        value           $internalField;
    }
    comprRight
    {
        type            omegaWallFunction;
        value           $internalField;
    }
	comprLeft
	{
        type            omegaWallFunction;
        value           $internalField;
    }
    comprAtmosphere
    {
        type            inletOutlet;
        inletValue      $internalField;
        value           $internalField;
    }
	fixedEnd
    {
        type            omegaWallFunction;
        value           $internalField;
    }
	fixedBottom
    {
        type            omegaWallFunction;
        value           $internalField;
    }
    fixedRight
    {
        type            omegaWallFunction;
        value           $internalField;
    }
	fixedLeft
    {
        type            omegaWallFunction;
        value           $internalField;
    }
	fixedAtmosphere
    {
        type            inletOutlet;
        inletValue      $internalField;
        value           $internalField;
    }
	flumeFloor
	{
        type            omegaWallFunction;
        value           $internalField;
    }
	interface
	{
        type            omegaWallFunction;
        value           $internalField;
    }

}


// ************************************************************************* //
