# Moment      
# CofR        : (6.000000e-03 4.000000e-02 0.000000e+00)
#
# Time        	total_x total_y total_z	pressure_x pressure_y pressure_z	viscous_x viscous_y viscous_z
0              -5.768280e-07 -4.235165e-22 1.376429e-21 -5.768280e-07 -4.235165e-22 1.376429e-21 0.000000e+00 0.000000e+00 0.000000e+00
0              -5.768280e-07 -4.235165e-22 1.376429e-21 -5.768280e-07 -4.235165e-22 1.376429e-21 0.000000e+00 0.000000e+00 0.000000e+00
0.0001         2.819163e-06 6.490475e-06 5.945391e-06 2.872452e-06 6.472561e-06 6.148568e-06 -5.328955e-08 1.791404e-08 -2.031775e-07
0.0001         2.819163e-06 6.490475e-06 5.945391e-06 2.872452e-06 6.472561e-06 6.148568e-06 -5.328955e-08 1.791404e-08 -2.031775e-07
0.0002         2.728638e-06 6.437644e-06 5.681052e-06 2.836316e-06 6.402200e-06 6.084426e-06 -1.076779e-07 3.544430e-08 -4.033742e-07
0.0002         2.728638e-06 6.437644e-06 5.681052e-06 2.836316e-06 6.402200e-06 6.084426e-06 -1.076779e-07 3.544430e-08 -4.033742e-07
0.0003         2.651291e-06 6.426228e-06 5.460473e-06 2.813871e-06 6.373461e-06 6.062525e-06 -1.625799e-07 5.276662e-08 -6.020518e-07
0.0004         2.581204e-06 6.431249e-06 5.254854e-06 2.798924e-06 6.361296e-06 6.054547e-06 -2.177199e-07 6.995295e-08 -7.996924e-07
0.0005         2.519608e-06 6.453791e-06 5.060593e-06 2.792665e-06 6.366712e-06 6.057497e-06 -2.730573e-07 8.707865e-08 -9.969042e-07
0.0006         2.460780e-06 6.480337e-06 4.869001e-06 2.789349e-06 6.376169e-06 6.062886e-06 -3.285698e-07 1.041678e-07 -1.193884e-06
0.0007         2.405333e-06 6.512655e-06 4.681400e-06 2.789580e-06 6.391407e-06 6.072274e-06 -3.842466e-07 1.212477e-07 -1.390874e-06
0.0008         2.348728e-06 6.539240e-06 4.489631e-06 2.788757e-06 6.400933e-06 6.077365e-06 -4.400285e-07 1.383070e-07 -1.587734e-06
0.0009         2.293329e-06 6.566728e-06 4.298911e-06 2.789217e-06 6.411375e-06 6.083436e-06 -4.958878e-07 1.553535e-07 -1.784524e-06
0.001          2.238163e-06 6.593142e-06 4.107507e-06 2.789960e-06 6.420752e-06 6.088759e-06 -5.517975e-07 1.723898e-07 -1.981252e-06
0.0011         2.182848e-06 6.617158e-06 3.913415e-06 2.790478e-06 6.427747e-06 6.091157e-06 -6.076300e-07 1.894110e-07 -2.177742e-06
0.0012         2.128297e-06 6.641945e-06 3.721046e-06 2.791749e-06 6.435523e-06 6.095164e-06 -6.634524e-07 2.064221e-07 -2.374117e-06
0.0013         2.072378e-06 6.662709e-06 3.526354e-06 2.791654e-06 6.439297e-06 6.096654e-06 -7.192763e-07 2.234123e-07 -2.570300e-06
0.0014         2.015210e-06 6.679925e-06 3.329327e-06 2.790272e-06 6.439552e-06 6.095526e-06 -7.750620e-07 2.403729e-07 -2.766199e-06
0.0015         1.960695e-06 6.702473e-06 3.136458e-06 2.791510e-06 6.445151e-06 6.098448e-06 -8.308152e-07 2.573222e-07 -2.961990e-06
0.0016         1.906372e-06 6.724586e-06 2.943353e-06 2.792910e-06 6.450327e-06 6.101008e-06 -8.865380e-07 2.742588e-07 -3.157655e-06
0.0017         1.851678e-06 6.745508e-06 2.749529e-06 2.793902e-06 6.454328e-06 6.102688e-06 -9.422239e-07 2.911799e-07 -3.353160e-06
0.0018         1.798398e-06 6.769185e-06 2.557792e-06 2.796278e-06 6.461090e-06 6.106385e-06 -9.978803e-07 3.080944e-07 -3.548593e-06
0.0019         1.743268e-06 6.788395e-06 2.362831e-06 2.796757e-06 6.463406e-06 6.106651e-06 -1.053489e-06 3.249892e-07 -3.743820e-06
0.002          1.687399e-06 6.805679e-06 2.166562e-06 2.796443e-06 6.463820e-06 6.105348e-06 -1.109044e-06 3.418588e-07 -3.938785e-06
0.0021         1.632155e-06 6.824112e-06 1.971506e-06 2.796704e-06 6.465405e-06 6.105033e-06 -1.164549e-06 3.587068e-07 -4.133527e-06
0.0022         1.576931e-06 6.842381e-06 1.776607e-06 2.796933e-06 6.466848e-06 6.104649e-06 -1.220002e-06 3.755332e-07 -4.328042e-06
0.0023         1.521573e-06 6.860175e-06 1.581592e-06 2.796976e-06 6.467839e-06 6.103910e-06 -1.275403e-06 3.923365e-07 -4.522318e-06
0.0024         1.466998e-06 6.879571e-06 1.388099e-06 2.797757e-06 6.470449e-06 6.104504e-06 -1.330759e-06 4.091217e-07 -4.716405e-06
0.0025         1.411931e-06 6.897767e-06 1.193999e-06 2.797996e-06 6.471882e-06 6.104266e-06 -1.386065e-06 4.258851e-07 -4.910267e-06
0.0026         1.357047e-06 6.916283e-06 1.000449e-06 2.798372e-06 6.473655e-06 6.104363e-06 -1.441324e-06 4.426277e-07 -5.103914e-06
0.0027         1.302128e-06 6.934634e-06 8.070789e-07 2.798665e-06 6.475285e-06 6.104421e-06 -1.496537e-06 4.593487e-07 -5.297343e-06
0.0028         1.247219e-06 6.952956e-06 6.139832e-07 2.798925e-06 6.476908e-06 6.104535e-06 -1.551706e-06 4.760481e-07 -5.490552e-06
0.0029         1.192315e-06 6.971266e-06 4.212610e-07 2.799148e-06 6.478541e-06 6.104803e-06 -1.606832e-06 4.927254e-07 -5.683543e-06
0.003          1.137412e-06 6.989563e-06 2.288502e-07 2.799330e-06 6.480182e-06 6.105164e-06 -1.661917e-06 5.093806e-07 -5.876313e-06
0.0031         1.082506e-06 7.007857e-06 3.678981e-08 2.799470e-06 6.481844e-06 6.105655e-06 -1.716964e-06 5.260133e-07 -6.068865e-06
0.0032         1.027591e-06 7.026161e-06 -1.549177e-07 2.799565e-06 6.483538e-06 6.106279e-06 -1.771974e-06 5.426233e-07 -6.261197e-06
0.0033         9.726686e-07 7.044487e-06 -3.462592e-07 2.799618e-06 6.485277e-06 6.107051e-06 -1.826950e-06 5.592103e-07 -6.453310e-06
0.0034         9.177378e-07 7.062838e-06 -5.371927e-07 2.799633e-06 6.487064e-06 6.108013e-06 -1.881895e-06 5.757742e-07 -6.645206e-06
0.0035         8.627972e-07 7.081243e-06 -7.277200e-07 2.799609e-06 6.488928e-06 6.109164e-06 -1.936812e-06 5.923146e-07 -6.836884e-06
0.0036         8.078527e-07 7.099729e-06 -9.178194e-07 2.799556e-06 6.490897e-06 6.110529e-06 -1.991703e-06 6.088315e-07 -7.028348e-06
0.0037         7.529000e-07 7.118302e-06 -1.107480e-06 2.799473e-06 6.492977e-06 6.112120e-06 -2.046573e-06 6.253249e-07 -7.219600e-06
0.0038         6.979389e-07 7.136955e-06 -1.296735e-06 2.799363e-06 6.495161e-06 6.113906e-06 -2.101424e-06 6.417945e-07 -7.410641e-06
0.0039         6.429655e-07 7.155713e-06 -1.485526e-06 2.799225e-06 6.497473e-06 6.115948e-06 -2.156260e-06 6.582402e-07 -7.601474e-06
0.004          5.879793e-07 7.174574e-06 -1.673895e-06 2.799063e-06 6.499912e-06 6.118207e-06 -2.211084e-06 6.746621e-07 -7.792102e-06
0.0041         5.329791e-07 7.193540e-06 -1.861849e-06 2.798879e-06 6.502480e-06 6.120679e-06 -2.265900e-06 6.910600e-07 -7.982527e-06
0.0042         4.779667e-07 7.212679e-06 -2.049253e-06 2.798678e-06 6.505245e-06 6.123502e-06 -2.320712e-06 7.074340e-07 -8.172755e-06
0.0043         4.229278e-07 7.231692e-06 -2.236629e-06 2.798446e-06 6.507908e-06 6.126151e-06 -2.375518e-06 7.237836e-07 -8.362780e-06
0.0044         3.678780e-07 7.250860e-06 -2.423525e-06 2.798202e-06 6.510751e-06 6.129080e-06 -2.430324e-06 7.401088e-07 -8.552605e-06
0.0045         3.128083e-07 7.270288e-06 -2.609712e-06 2.797940e-06 6.513878e-06 6.132531e-06 -2.485132e-06 7.564097e-07 -8.742243e-06
0.0046         2.577089e-07 7.289696e-06 -2.795598e-06 2.797646e-06 6.517009e-06 6.136098e-06 -2.539937e-06 7.726862e-07 -8.931696e-06
0.0047         2.025453e-07 7.309446e-06 -2.980833e-06 2.797304e-06 6.520508e-06 6.140131e-06 -2.594759e-06 7.889383e-07 -9.120964e-06
0.0048         1.479149e-07 7.330436e-06 -3.164950e-06 2.797513e-06 6.525266e-06 6.145136e-06 -2.649599e-06 8.051698e-07 -9.310086e-06
0.0049         9.287790e-08 7.350435e-06 -3.349775e-06 2.797330e-06 6.529057e-06 6.149255e-06 -2.704452e-06 8.213776e-07 -9.499030e-06
0.005          3.824290e-08 7.371595e-06 -3.533427e-06 2.797569e-06 6.534030e-06 6.154402e-06 -2.759326e-06 8.375646e-07 -9.687829e-06
0.0051         -1.700022e-08 7.391523e-06 -3.717799e-06 2.797220e-06 6.537796e-06 6.158646e-06 -2.814220e-06 8.537269e-07 -9.876445e-06
0.0052         -7.223730e-08 7.411627e-06 -3.901740e-06 2.796898e-06 6.541762e-06 6.163142e-06 -2.869136e-06 8.698645e-07 -1.006488e-05
0.0053         -1.274846e-07 7.431846e-06 -4.085382e-06 2.796590e-06 6.545868e-06 6.167760e-06 -2.924075e-06 8.859775e-07 -1.025314e-05
0.0054         -1.827392e-07 7.452145e-06 -4.268789e-06 2.796300e-06 6.550080e-06 6.172437e-06 -2.979039e-06 9.020659e-07 -1.044123e-05
0.0055         -2.380122e-07 7.472570e-06 -4.451869e-06 2.796018e-06 6.554440e-06 6.177268e-06 -3.034030e-06 9.181297e-07 -1.062914e-05
0.0056         -2.933032e-07 7.493059e-06 -4.634684e-06 2.795746e-06 6.558890e-06 6.182191e-06 -3.089049e-06 9.341689e-07 -1.081687e-05
0.0057         -3.486128e-07 7.513614e-06 -4.817301e-06 2.795484e-06 6.563430e-06 6.187140e-06 -3.144097e-06 9.501835e-07 -1.100444e-05
0.0058         -4.039422e-07 7.534246e-06 -4.999667e-06 2.795233e-06 6.568072e-06 6.192170e-06 -3.199175e-06 9.661734e-07 -1.119184e-05
0.0059         -4.593036e-07 7.554903e-06 -5.181856e-06 2.794981e-06 6.572764e-06 6.197204e-06 -3.254285e-06 9.821385e-07 -1.137906e-05
0.006          -5.147038e-07 7.575568e-06 -5.363863e-06 2.794721e-06 6.577489e-06 6.202250e-06 -3.309425e-06 9.980786e-07 -1.156611e-05
0.0061         -5.701425e-07 7.596235e-06 -5.545700e-06 2.794455e-06 6.582241e-06 6.207290e-06 -3.364598e-06 1.013993e-06 -1.175299e-05
0.0062         -6.256209e-07 7.616897e-06 -5.727378e-06 2.794181e-06 6.587014e-06 6.212313e-06 -3.419802e-06 1.029883e-06 -1.193969e-05
0.0063         -6.811413e-07 7.637529e-06 -5.908946e-06 2.793898e-06 6.591783e-06 6.217270e-06 -3.475039e-06 1.045747e-06 -1.212622e-05
0.0064         -7.367022e-07 7.658143e-06 -6.090355e-06 2.793606e-06 6.596558e-06 6.222205e-06 -3.530308e-06 1.061584e-06 -1.231256e-05
0.0065         -7.923031e-07 7.678729e-06 -6.271634e-06 2.793306e-06 6.601333e-06 6.227090e-06 -3.585610e-06 1.077396e-06 -1.249872e-05
0.0066         -8.479444e-07 7.699282e-06 -6.452776e-06 2.792999e-06 6.606101e-06 6.231926e-06 -3.640943e-06 1.093181e-06 -1.268470e-05
0.0067         -9.036256e-07 7.719792e-06 -6.633792e-06 2.792683e-06 6.610854e-06 6.236702e-06 -3.696309e-06 1.108939e-06 -1.287049e-05
0.0068         -9.593553e-07 7.740179e-06 -6.814757e-06 2.792350e-06 6.615510e-06 6.241337e-06 -3.751705e-06 1.124670e-06 -1.305609e-05
0.0069         -1.015093e-06 7.760725e-06 -6.995381e-06 2.792041e-06 6.620352e-06 6.246125e-06 -3.807134e-06 1.140374e-06 -1.324151e-05
0.007          -1.070896e-06 7.781090e-06 -7.176040e-06 2.791698e-06 6.625041e-06 6.250682e-06 -3.862594e-06 1.156050e-06 -1.342672e-05
0.0071         -1.126729e-06 7.801432e-06 -7.356523e-06 2.791356e-06 6.629734e-06 6.255219e-06 -3.918085e-06 1.171698e-06 -1.361174e-05
0.0072         -1.182598e-06 7.821716e-06 -7.536889e-06 2.791009e-06 6.634398e-06 6.259674e-06 -3.973606e-06 1.187318e-06 -1.379656e-05
0.0073         -1.238499e-06 7.841950e-06 -7.717113e-06 2.790658e-06 6.639040e-06 6.264070e-06 -4.029157e-06 1.202910e-06 -1.398118e-05
0.0074         -1.294453e-06 7.862114e-06 -7.897221e-06 2.790284e-06 6.643640e-06 6.268378e-06 -4.084737e-06 1.218474e-06 -1.416560e-05
0.0075         -1.350395e-06 7.882270e-06 -8.077134e-06 2.789950e-06 6.648262e-06 6.272675e-06 -4.140346e-06 1.234009e-06 -1.434981e-05
0.0076         -1.406392e-06 7.902365e-06 -8.256914e-06 2.789591e-06 6.652851e-06 6.276898e-06 -4.195983e-06 1.249515e-06 -1.453381e-05
0.0077         -1.462425e-06 7.922410e-06 -8.436529e-06 2.789223e-06 6.657418e-06 6.281078e-06 -4.251648e-06 1.264992e-06 -1.471761e-05
0.0078         -1.518487e-06 7.942401e-06 -8.615983e-06 2.788854e-06 6.661961e-06 6.285207e-06 -4.307340e-06 1.280440e-06 -1.490119e-05
0.0079         -1.574581e-06 7.962344e-06 -8.795300e-06 2.788479e-06 6.666485e-06 6.289260e-06 -4.363060e-06 1.295859e-06 -1.508456e-05
0.008          -1.630707e-06 7.982241e-06 -8.974439e-06 2.788101e-06 6.670993e-06 6.293272e-06 -4.418808e-06 1.311248e-06 -1.526771e-05
0.0081         -1.686866e-06 8.002142e-06 -9.153335e-06 2.787718e-06 6.675536e-06 6.297306e-06 -4.474584e-06 1.326606e-06 -1.545064e-05
0.0082         -1.743066e-06 8.021774e-06 -9.332404e-06 2.787318e-06 6.679841e-06 6.300937e-06 -4.530384e-06 1.341933e-06 -1.563334e-05
0.0083         -1.799299e-06 8.041252e-06 -9.511457e-06 2.786908e-06 6.684023e-06 6.304343e-06 -4.586207e-06 1.357229e-06 -1.581580e-05
0.0084         -1.855554e-06 8.060931e-06 -9.689917e-06 2.786504e-06 6.688439e-06 6.308106e-06 -4.642058e-06 1.372492e-06 -1.599802e-05
0.0085         -1.911844e-06 8.080536e-06 -9.868225e-06 2.786093e-06 6.692813e-06 6.311781e-06 -4.697936e-06 1.387723e-06 -1.618001e-05
0.0086         -1.968168e-06 8.100051e-06 -1.004639e-05 2.785676e-06 6.697130e-06 6.315350e-06 -4.753843e-06 1.402921e-06 -1.636174e-05
0.0087         -2.024523e-06 8.119497e-06 -1.022438e-05 2.785256e-06 6.701413e-06 6.318843e-06 -4.809779e-06 1.418084e-06 -1.654322e-05
0.0088         -2.080906e-06 8.138820e-06 -1.040226e-05 2.784839e-06 6.705606e-06 6.322181e-06 -4.865745e-06 1.433214e-06 -1.672445e-05
0.0089         -2.137473e-06 8.158147e-06 -1.057995e-05 2.784252e-06 6.709838e-06 6.325476e-06 -4.921724e-06 1.448309e-06 -1.690542e-05
0.009          -2.194045e-06 8.177815e-06 -1.075680e-05 2.783681e-06 6.714443e-06 6.329362e-06 -4.977726e-06 1.463372e-06 -1.708616e-05
0.0091         -2.250582e-06 8.197066e-06 -1.093400e-05 2.783169e-06 6.718666e-06 6.332642e-06 -5.033751e-06 1.478399e-06 -1.726664e-05
0.0092         -2.307134e-06 8.216270e-06 -1.111094e-05 2.782669e-06 6.722879e-06 6.335903e-06 -5.089802e-06 1.493391e-06 -1.744685e-05
0.0093         -2.363746e-06 8.235451e-06 -1.128755e-05 2.782136e-06 6.727105e-06 6.339237e-06 -5.145882e-06 1.508346e-06 -1.762679e-05
0.0094         -2.420426e-06 8.254313e-06 -1.146423e-05 2.781560e-06 6.731050e-06 6.342207e-06 -5.201986e-06 1.523263e-06 -1.780644e-05
0.0095         -2.477171e-06 8.272948e-06 -1.164087e-05 2.780942e-06 6.734806e-06 6.344926e-06 -5.258113e-06 1.538141e-06 -1.798580e-05
0.0096         -2.533931e-06 8.291776e-06 -1.181685e-05 2.780335e-06 6.738795e-06 6.348006e-06 -5.314266e-06 1.552981e-06 -1.816486e-05
0.0097         -2.591073e-06 8.309852e-06 -1.199312e-05 2.779362e-06 6.742073e-06 6.350494e-06 -5.370435e-06 1.567779e-06 -1.834361e-05
0.0098         -2.648436e-06 8.327606e-06 -1.216945e-05 2.778166e-06 6.745070e-06 6.352595e-06 -5.426601e-06 1.582536e-06 -1.852205e-05
0.0099         -2.705475e-06 8.345743e-06 -1.234455e-05 2.777335e-06 6.748494e-06 6.355592e-06 -5.482810e-06 1.597248e-06 -1.870014e-05
0.01           -2.762598e-06 8.364019e-06 -1.251945e-05 2.776439e-06 6.752100e-06 6.358468e-06 -5.539037e-06 1.611918e-06 -1.887792e-05
0.0101         -2.819574e-06 8.382432e-06 -1.269383e-05 2.775719e-06 6.755887e-06 6.361532e-06 -5.595293e-06 1.626545e-06 -1.905537e-05
0.0102         -2.876643e-06 8.400747e-06 -1.286791e-05 2.774931e-06 6.759620e-06 6.364568e-06 -5.651574e-06 1.641127e-06 -1.923248e-05
0.0103         -2.933733e-06 8.419037e-06 -1.304161e-05 2.774149e-06 6.763373e-06 6.367643e-06 -5.707882e-06 1.655665e-06 -1.940926e-05
0.0104         -2.990860e-06 8.437296e-06 -1.321493e-05 2.773358e-06 6.767139e-06 6.370760e-06 -5.764218e-06 1.670157e-06 -1.958569e-05
0.0105         -3.048025e-06 8.455510e-06 -1.338788e-05 2.772555e-06 6.770907e-06 6.373897e-06 -5.820580e-06 1.684604e-06 -1.976178e-05
0.0106         -3.105232e-06 8.473690e-06 -1.356045e-05 2.771739e-06 6.774686e-06 6.377073e-06 -5.876971e-06 1.699004e-06 -1.993752e-05
0.0107         -3.162489e-06 8.491781e-06 -1.373267e-05 2.770901e-06 6.778424e-06 6.380231e-06 -5.933390e-06 1.713357e-06 -2.011290e-05
0.0108         -3.219791e-06 8.509829e-06 -1.390452e-05 2.770047e-06 6.782166e-06 6.383413e-06 -5.989838e-06 1.727663e-06 -2.028793e-05
0.0109         -3.277138e-06 8.527827e-06 -1.407597e-05 2.769178e-06 6.785906e-06 6.386618e-06 -6.046316e-06 1.741921e-06 -2.046259e-05
0.011          -3.334530e-06 8.545777e-06 -1.424705e-05 2.768294e-06 6.789646e-06 6.389840e-06 -6.102824e-06 1.756131e-06 -2.063689e-05
0.0111         -3.391973e-06 8.563669e-06 -1.441774e-05 2.767390e-06 6.793378e-06 6.393080e-06 -6.159363e-06 1.770291e-06 -2.081082e-05
0.0112         -3.449464e-06 8.581515e-06 -1.458803e-05 2.766471e-06 6.797112e-06 6.396347e-06 -6.215934e-06 1.784403e-06 -2.098438e-05
0.0113         -3.507005e-06 8.599323e-06 -1.475791e-05 2.765534e-06 6.800858e-06 6.399653e-06 -6.272539e-06 1.798465e-06 -2.115756e-05
0.0114         -3.564595e-06 8.617145e-06 -1.492728e-05 2.764583e-06 6.804668e-06 6.403092e-06 -6.329178e-06 1.812478e-06 -2.133037e-05
0.0115         -3.622250e-06 8.634652e-06 -1.509667e-05 2.763599e-06 6.808212e-06 6.406129e-06 -6.385849e-06 1.826439e-06 -2.150279e-05
0.0116         -3.679964e-06 8.651969e-06 -1.526585e-05 2.762586e-06 6.811619e-06 6.408979e-06 -6.442549e-06 1.840350e-06 -2.167483e-05
0.0117         -3.737414e-06 8.670256e-06 -1.543358e-05 2.761876e-06 6.816043e-06 6.412924e-06 -6.499289e-06 1.854213e-06 -2.184650e-05
0.0118         -3.794855e-06 8.688546e-06 -1.560094e-05 2.761213e-06 6.820520e-06 6.416872e-06 -6.556068e-06 1.868026e-06 -2.201781e-05
0.0119         -3.852344e-06 8.706888e-06 -1.576781e-05 2.760544e-06 6.825097e-06 6.420948e-06 -6.612888e-06 1.881791e-06 -2.218876e-05
