/*--------------------------------*- C++ -*----------------------------------*\
| =========                 |                                                 |
| \\      /  F ield         | OpenFOAM: The Open Source CFD Toolbox           |
|  \\    /   O peration     | Version:  7.0                                   |
|   \\  /    A nd           | Web:      http://www.OpenFOAM.org               |
|    \\/     M anipulation  |                                                 |
\*---------------------------------------------------------------------------*/
FoamFile
{
    version     2.0;
    format      ascii;
    class       volScalarField;
    object      p_rgh;
}
// * * * * * * * * * * * * * * * * * * * * * * * * * * * * * * * * * * * * * //
#include      "ICfiles/initialConditions"
dimensions    [1 -1 -2 0 0 0 0];
internalField uniform 0;
boundaryField 
{
    fixedStart
	{
		type		fixedFluxPressure;
		value		$internalField;
    }
	fixedEnd 
	{
        type            fixedFluxPressure;
    }
    fixedBottom
    {
        type            fixedFluxPressure;
    }   
fixedStartTop
    {
        type            fixedFluxPressure;
    }
	flumeFloor
    {
        type            fixedFluxPressure;
    }
    fixedRight
    {
        type            fixedFluxPressure;
    }   
	fixedLeft
    {
        type            fixedFluxPressure;
    }   
	interface
    {
        type            fixedFluxPressure;
        value           $internalField;
    }
	fixedAtmosphere
    {
        type            totalPressure;
        U               U;
        phi             phi;
        rho             rho;
        psi             none;
        gamma           1;
        p0              $internalField;
        value           $internalField;
    }
}
// ************************************************************************* //
