# Moment      
# CofR        : (6.000000e-03 4.000000e-02 0.000000e+00)
#
# Time        	total_x total_y total_z	pressure_x pressure_y pressure_z	viscous_x viscous_y viscous_z
0.0001         2.819163e-06 6.490476e-06 5.945391e-06 2.872452e-06 6.472562e-06 6.148569e-06 -5.328955e-08 1.791404e-08 -2.031775e-07
0.0002         2.728635e-06 6.437640e-06 5.681045e-06 2.836313e-06 6.402195e-06 6.084419e-06 -1.076782e-07 3.544428e-08 -4.033742e-07
0.0003         2.651293e-06 6.426224e-06 5.460471e-06 2.813873e-06 6.373458e-06 6.062522e-06 -1.625799e-07 5.276660e-08 -6.020516e-07
0.0004         2.581204e-06 6.431233e-06 5.254828e-06 2.798924e-06 6.361280e-06 6.054520e-06 -2.177197e-07 6.995291e-08 -7.996917e-07
0.0005         2.519607e-06 6.453831e-06 5.060643e-06 2.792665e-06 6.366752e-06 6.057548e-06 -2.730573e-07 8.707869e-08 -9.969046e-07
