<?xml version="1.0"?>
<VTKFile type="UnstructuredGrid" version="1.0" byte_order="LittleEndian" compressor="vtkZLibDataCompressor">
  <UnstructuredGrid>
    <Piece NumberOfPoints="49" NumberOfCells="1">
      <Points>
        <DataArray type="Float64" Name="Points" NumberOfComponents="3" format="ascii">
          6.0000e-03 0.0000e+00 5.0000e-03 
          6.0000e-03 1.6667e-03 5.0000e-03 
          6.0000e-03 3.3333e-03 5.0000e-03 
          6.0000e-03 5.0000e-03 5.0000e-03 
          6.0000e-03 6.6667e-03 5.0000e-03 
          6.0000e-03 8.3333e-03 5.0000e-03 
          6.0000e-03 1.0000e-02 5.0000e-03 
          6.0000e-03 1.1667e-02 5.0000e-03 
          6.0000e-03 1.3333e-02 5.0000e-03 
          6.0000e-03 1.5000e-02 5.0000e-03 
          6.0000e-03 1.6667e-02 5.0000e-03 
          6.0000e-03 1.8333e-02 5.0000e-03 
          6.0000e-03 2.0000e-02 5.0000e-03 
          6.0000e-03 2.1667e-02 5.0000e-03 
          6.0000e-03 2.3333e-02 5.0000e-03 
          6.0000e-03 2.5000e-02 5.0000e-03 
          6.0000e-03 2.6667e-02 5.0000e-03 
          6.0000e-03 2.8333e-02 5.0000e-03 
          6.0000e-03 3.0000e-02 5.0000e-03 
          6.0000e-03 3.1667e-02 5.0000e-03 
          6.0000e-03 3.3333e-02 5.0000e-03 
          6.0000e-03 3.5000e-02 5.0000e-03 
          6.0000e-03 3.6667e-02 5.0000e-03 
          6.0000e-03 3.8333e-02 5.0000e-03 
          6.0000e-03 4.0000e-02 5.0000e-03 
          6.0000e-03 4.1667e-02 5.0000e-03 
          6.0000e-03 4.3333e-02 5.0000e-03 
          6.0000e-03 4.5000e-02 5.0000e-03 
          6.0000e-03 4.6667e-02 5.0000e-03 
          6.0000e-03 4.8333e-02 5.0000e-03 
          6.0000e-03 5.0000e-02 5.0000e-03 
          6.0000e-03 5.1667e-02 5.0000e-03 
          6.0000e-03 5.3333e-02 5.0000e-03 
          6.0000e-03 5.5000e-02 5.0000e-03 
          6.0000e-03 5.6667e-02 5.0000e-03 
          6.0000e-03 5.8333e-02 5.0000e-03 
          6.0000e-03 6.0000e-02 5.0000e-03 
          6.0000e-03 6.1667e-02 5.0000e-03 
          6.0000e-03 6.3333e-02 5.0000e-03 
          6.0000e-03 6.5000e-02 5.0000e-03 
          6.0000e-03 6.6667e-02 5.0000e-03 
          6.0000e-03 6.8333e-02 5.0000e-03 
          6.0000e-03 7.0000e-02 5.0000e-03 
          6.0000e-03 7.1667e-02 5.0000e-03 
          6.0000e-03 7.3333e-02 5.0000e-03 
          6.0000e-03 7.5000e-02 5.0000e-03 
          6.0000e-03 7.6667e-02 5.0000e-03 
          6.0000e-03 7.8333e-02 5.0000e-03 
          6.0000e-03 8.0000e-02 5.0000e-03 
        </DataArray>
      </Points>
      <Cells>
        <DataArray type="Int64" Name="connectivity" format="ascii">
          0
          1
          2
          3
          4
          5
          6
          7
          8
          9
          10
          11
          12
          13
          14
          15
          16
          17
          18
          19
          20
          21
          22
          23
          24
          25
          26
          27
          28
          29
          30
          31
          32
          33
          34
          35
          36
          37
          38
          39
          40
          41
          42
          43
          44
          45
          46
          47
          48
        </DataArray>
        <DataArray type="Int64" Name="offsets" format="ascii">
          49
        </DataArray>
        <DataArray type="Int64" Name="types" format="ascii">
          2
        </DataArray>
      </Cells>
      <PointData>
        <DataArray type="Int64" Name="NodeTag" format="ascii">
          0
          1
          2
          3
          4
          5
          6
          7
          8
          9
          10
          11
          12
          13
          14
          15
          16
          17
          18
          19
          20
          21
          22
          23
          24
          25
          26
          27
          28
          29
          30
          31
          32
          33
          34
          35
          36
          37
          38
          39
          40
          41
          42
          43
          44
          45
          46
          47
          48
        </DataArray>
        <DataArray type="Float64" Name="Velocity" NumberOfComponents="3" format="ascii">
          0.0000e+00 0.0000e+00 0.0000e+00 
          0.0000e+00 0.0000e+00 0.0000e+00 
          0.0000e+00 0.0000e+00 0.0000e+00 
          0.0000e+00 0.0000e+00 0.0000e+00 
          0.0000e+00 0.0000e+00 0.0000e+00 
          0.0000e+00 0.0000e+00 0.0000e+00 
          0.0000e+00 0.0000e+00 0.0000e+00 
          0.0000e+00 0.0000e+00 0.0000e+00 
          0.0000e+00 0.0000e+00 0.0000e+00 
          0.0000e+00 0.0000e+00 0.0000e+00 
          0.0000e+00 0.0000e+00 0.0000e+00 
          0.0000e+00 0.0000e+00 0.0000e+00 
          0.0000e+00 0.0000e+00 0.0000e+00 
          0.0000e+00 0.0000e+00 0.0000e+00 
          0.0000e+00 0.0000e+00 0.0000e+00 
          0.0000e+00 0.0000e+00 0.0000e+00 
          0.0000e+00 0.0000e+00 0.0000e+00 
          0.0000e+00 0.0000e+00 0.0000e+00 
          0.0000e+00 0.0000e+00 0.0000e+00 
          0.0000e+00 0.0000e+00 0.0000e+00 
          0.0000e+00 0.0000e+00 0.0000e+00 
          0.0000e+00 0.0000e+00 0.0000e+00 
          0.0000e+00 0.0000e+00 0.0000e+00 
          0.0000e+00 0.0000e+00 0.0000e+00 
          0.0000e+00 0.0000e+00 0.0000e+00 
          0.0000e+00 0.0000e+00 0.0000e+00 
          0.0000e+00 0.0000e+00 0.0000e+00 
          0.0000e+00 0.0000e+00 0.0000e+00 
          0.0000e+00 0.0000e+00 0.0000e+00 
          0.0000e+00 0.0000e+00 0.0000e+00 
          0.0000e+00 0.0000e+00 0.0000e+00 
          0.0000e+00 0.0000e+00 0.0000e+00 
          0.0000e+00 0.0000e+00 0.0000e+00 
          0.0000e+00 0.0000e+00 0.0000e+00 
          0.0000e+00 0.0000e+00 0.0000e+00 
          0.0000e+00 0.0000e+00 0.0000e+00 
          0.0000e+00 0.0000e+00 0.0000e+00 
          0.0000e+00 0.0000e+00 0.0000e+00 
          0.0000e+00 0.0000e+00 0.0000e+00 
          0.0000e+00 0.0000e+00 0.0000e+00 
          0.0000e+00 0.0000e+00 0.0000e+00 
          0.0000e+00 0.0000e+00 0.0000e+00 
          0.0000e+00 0.0000e+00 0.0000e+00 
          0.0000e+00 0.0000e+00 0.0000e+00 
          0.0000e+00 0.0000e+00 0.0000e+00 
          0.0000e+00 0.0000e+00 0.0000e+00 
          0.0000e+00 0.0000e+00 0.0000e+00 
          0.0000e+00 0.0000e+00 0.0000e+00 
          0.0000e+00 0.0000e+00 0.0000e+00 
        </DataArray>
        <DataArray type="Float64" Name="Displacement" NumberOfComponents="3" format="ascii">
          0.0000e+00 0.0000e+00 0.0000e+00 
          0.0000e+00 0.0000e+00 0.0000e+00 
          0.0000e+00 0.0000e+00 0.0000e+00 
          0.0000e+00 0.0000e+00 0.0000e+00 
          0.0000e+00 0.0000e+00 0.0000e+00 
          0.0000e+00 0.0000e+00 0.0000e+00 
          0.0000e+00 0.0000e+00 0.0000e+00 
          0.0000e+00 0.0000e+00 0.0000e+00 
          0.0000e+00 0.0000e+00 0.0000e+00 
          0.0000e+00 0.0000e+00 0.0000e+00 
          0.0000e+00 0.0000e+00 0.0000e+00 
          0.0000e+00 0.0000e+00 0.0000e+00 
          0.0000e+00 0.0000e+00 0.0000e+00 
          0.0000e+00 0.0000e+00 0.0000e+00 
          0.0000e+00 0.0000e+00 0.0000e+00 
          0.0000e+00 0.0000e+00 0.0000e+00 
          0.0000e+00 0.0000e+00 0.0000e+00 
          0.0000e+00 0.0000e+00 0.0000e+00 
          0.0000e+00 0.0000e+00 0.0000e+00 
          0.0000e+00 0.0000e+00 0.0000e+00 
          0.0000e+00 0.0000e+00 0.0000e+00 
          0.0000e+00 0.0000e+00 0.0000e+00 
          0.0000e+00 0.0000e+00 0.0000e+00 
          0.0000e+00 0.0000e+00 0.0000e+00 
          0.0000e+00 0.0000e+00 0.0000e+00 
          0.0000e+00 0.0000e+00 0.0000e+00 
          0.0000e+00 0.0000e+00 0.0000e+00 
          0.0000e+00 0.0000e+00 0.0000e+00 
          0.0000e+00 0.0000e+00 0.0000e+00 
          0.0000e+00 0.0000e+00 0.0000e+00 
          0.0000e+00 0.0000e+00 0.0000e+00 
          0.0000e+00 0.0000e+00 0.0000e+00 
          0.0000e+00 0.0000e+00 0.0000e+00 
          0.0000e+00 0.0000e+00 0.0000e+00 
          0.0000e+00 0.0000e+00 0.0000e+00 
          0.0000e+00 0.0000e+00 0.0000e+00 
          0.0000e+00 0.0000e+00 0.0000e+00 
          0.0000e+00 0.0000e+00 0.0000e+00 
          0.0000e+00 0.0000e+00 0.0000e+00 
          0.0000e+00 0.0000e+00 0.0000e+00 
          0.0000e+00 0.0000e+00 0.0000e+00 
          0.0000e+00 0.0000e+00 0.0000e+00 
          0.0000e+00 0.0000e+00 0.0000e+00 
          0.0000e+00 0.0000e+00 0.0000e+00 
          0.0000e+00 0.0000e+00 0.0000e+00 
          0.0000e+00 0.0000e+00 0.0000e+00 
          0.0000e+00 0.0000e+00 0.0000e+00 
          0.0000e+00 0.0000e+00 0.0000e+00 
          0.0000e+00 0.0000e+00 0.0000e+00 
        </DataArray>
        <DataArray type="Float64" Name="IncrDisplacement" NumberOfComponents="3" format="ascii">
          0.0000e+00 0.0000e+00 0.0000e+00 
          0.0000e+00 0.0000e+00 0.0000e+00 
          0.0000e+00 0.0000e+00 0.0000e+00 
          0.0000e+00 0.0000e+00 0.0000e+00 
          0.0000e+00 0.0000e+00 0.0000e+00 
          0.0000e+00 0.0000e+00 0.0000e+00 
          0.0000e+00 0.0000e+00 0.0000e+00 
          0.0000e+00 0.0000e+00 0.0000e+00 
          0.0000e+00 0.0000e+00 0.0000e+00 
          0.0000e+00 0.0000e+00 0.0000e+00 
          0.0000e+00 0.0000e+00 0.0000e+00 
          0.0000e+00 0.0000e+00 0.0000e+00 
          0.0000e+00 0.0000e+00 0.0000e+00 
          0.0000e+00 0.0000e+00 0.0000e+00 
          0.0000e+00 0.0000e+00 0.0000e+00 
          0.0000e+00 0.0000e+00 0.0000e+00 
          0.0000e+00 0.0000e+00 0.0000e+00 
          0.0000e+00 0.0000e+00 0.0000e+00 
          0.0000e+00 0.0000e+00 0.0000e+00 
          0.0000e+00 0.0000e+00 0.0000e+00 
          0.0000e+00 0.0000e+00 0.0000e+00 
          0.0000e+00 0.0000e+00 0.0000e+00 
          0.0000e+00 0.0000e+00 0.0000e+00 
          0.0000e+00 0.0000e+00 0.0000e+00 
          0.0000e+00 0.0000e+00 0.0000e+00 
          0.0000e+00 0.0000e+00 0.0000e+00 
          0.0000e+00 0.0000e+00 0.0000e+00 
          0.0000e+00 0.0000e+00 0.0000e+00 
          0.0000e+00 0.0000e+00 0.0000e+00 
          0.0000e+00 0.0000e+00 0.0000e+00 
          0.0000e+00 0.0000e+00 0.0000e+00 
          0.0000e+00 0.0000e+00 0.0000e+00 
          0.0000e+00 0.0000e+00 0.0000e+00 
          0.0000e+00 0.0000e+00 0.0000e+00 
          0.0000e+00 0.0000e+00 0.0000e+00 
          0.0000e+00 0.0000e+00 0.0000e+00 
          0.0000e+00 0.0000e+00 0.0000e+00 
          0.0000e+00 0.0000e+00 0.0000e+00 
          0.0000e+00 0.0000e+00 0.0000e+00 
          0.0000e+00 0.0000e+00 0.0000e+00 
          0.0000e+00 0.0000e+00 0.0000e+00 
          0.0000e+00 0.0000e+00 0.0000e+00 
          0.0000e+00 0.0000e+00 0.0000e+00 
          0.0000e+00 0.0000e+00 0.0000e+00 
          0.0000e+00 0.0000e+00 0.0000e+00 
          0.0000e+00 0.0000e+00 0.0000e+00 
          0.0000e+00 0.0000e+00 0.0000e+00 
          0.0000e+00 0.0000e+00 0.0000e+00 
          0.0000e+00 0.0000e+00 0.0000e+00 
        </DataArray>
        <DataArray type="Float64" Name="Acceleration" NumberOfComponents="3" format="ascii">
          0.0000e+00 0.0000e+00 0.0000e+00 
          0.0000e+00 0.0000e+00 0.0000e+00 
          -0.0000e+00 0.0000e+00 -0.0000e+00 
          -0.0000e+00 0.0000e+00 -0.0000e+00 
          -0.0000e+00 0.0000e+00 -0.0000e+00 
          -0.0000e+00 0.0000e+00 -0.0000e+00 
          -0.0000e+00 0.0000e+00 -0.0000e+00 
          -0.0000e+00 0.0000e+00 -0.0000e+00 
          -0.0000e+00 0.0000e+00 -0.0000e+00 
          -0.0000e+00 0.0000e+00 -0.0000e+00 
          -0.0000e+00 0.0000e+00 -0.0000e+00 
          -0.0000e+00 0.0000e+00 -0.0000e+00 
          -0.0000e+00 0.0000e+00 -0.0000e+00 
          -0.0000e+00 0.0000e+00 -0.0000e+00 
          -0.0000e+00 0.0000e+00 -0.0000e+00 
          -0.0000e+00 0.0000e+00 -0.0000e+00 
          -0.0000e+00 0.0000e+00 -0.0000e+00 
          -0.0000e+00 0.0000e+00 -0.0000e+00 
          -0.0000e+00 0.0000e+00 -0.0000e+00 
          -0.0000e+00 0.0000e+00 -0.0000e+00 
          -0.0000e+00 0.0000e+00 -0.0000e+00 
          -0.0000e+00 0.0000e+00 -0.0000e+00 
          -0.0000e+00 0.0000e+00 -0.0000e+00 
          -0.0000e+00 0.0000e+00 -0.0000e+00 
          -0.0000e+00 0.0000e+00 -0.0000e+00 
          -0.0000e+00 0.0000e+00 -0.0000e+00 
          -0.0000e+00 0.0000e+00 -0.0000e+00 
          -0.0000e+00 0.0000e+00 -0.0000e+00 
          -0.0000e+00 0.0000e+00 -0.0000e+00 
          -0.0000e+00 0.0000e+00 -0.0000e+00 
          -0.0000e+00 0.0000e+00 -0.0000e+00 
          -0.0000e+00 0.0000e+00 -0.0000e+00 
          -0.0000e+00 0.0000e+00 -0.0000e+00 
          -0.0000e+00 0.0000e+00 -0.0000e+00 
          -0.0000e+00 0.0000e+00 -0.0000e+00 
          -0.0000e+00 0.0000e+00 -0.0000e+00 
          -0.0000e+00 0.0000e+00 -0.0000e+00 
          -0.0000e+00 0.0000e+00 -0.0000e+00 
          -0.0000e+00 0.0000e+00 -0.0000e+00 
          -0.0000e+00 0.0000e+00 -0.0000e+00 
          -0.0000e+00 0.0000e+00 -0.0000e+00 
          -0.0000e+00 0.0000e+00 -0.0000e+00 
          -0.0000e+00 0.0000e+00 -0.0000e+00 
          -0.0000e+00 0.0000e+00 -0.0000e+00 
          -0.0000e+00 0.0000e+00 -0.0000e+00 
          -0.0000e+00 0.0000e+00 -0.0000e+00 
          -0.0000e+00 0.0000e+00 -0.0000e+00 
          -0.0000e+00 0.0000e+00 -0.0000e+00 
          -0.0000e+00 0.0000e+00 0.0000e+00 
        </DataArray>
        <DataArray type="Float64" Name="Pressure" format="ascii">
          0.0000e+00
          0.0000e+00
          0.0000e+00
          0.0000e+00
          0.0000e+00
          0.0000e+00
          0.0000e+00
          0.0000e+00
          0.0000e+00
          0.0000e+00
          0.0000e+00
          0.0000e+00
          0.0000e+00
          0.0000e+00
          0.0000e+00
          0.0000e+00
          0.0000e+00
          0.0000e+00
          0.0000e+00
          0.0000e+00
          0.0000e+00
          0.0000e+00
          0.0000e+00
          0.0000e+00
          0.0000e+00
          0.0000e+00
          0.0000e+00
          0.0000e+00
          0.0000e+00
          0.0000e+00
          0.0000e+00
          0.0000e+00
          0.0000e+00
          0.0000e+00
          0.0000e+00
          0.0000e+00
          0.0000e+00
          0.0000e+00
          0.0000e+00
          0.0000e+00
          0.0000e+00
          0.0000e+00
          0.0000e+00
          0.0000e+00
          0.0000e+00
          0.0000e+00
          0.0000e+00
          0.0000e+00
          0.0000e+00
        </DataArray>
        <DataArray type="Float64" Name="Reaction" NumberOfComponents="3" format="ascii">
          0.0000e+00 0.0000e+00 0.0000e+00 
          0.0000e+00 0.0000e+00 0.0000e+00 
          0.0000e+00 0.0000e+00 0.0000e+00 
          0.0000e+00 0.0000e+00 0.0000e+00 
          0.0000e+00 0.0000e+00 0.0000e+00 
          0.0000e+00 0.0000e+00 0.0000e+00 
          0.0000e+00 0.0000e+00 0.0000e+00 
          0.0000e+00 0.0000e+00 0.0000e+00 
          0.0000e+00 0.0000e+00 0.0000e+00 
          0.0000e+00 0.0000e+00 0.0000e+00 
          0.0000e+00 0.0000e+00 0.0000e+00 
          0.0000e+00 0.0000e+00 0.0000e+00 
          0.0000e+00 0.0000e+00 0.0000e+00 
          0.0000e+00 0.0000e+00 0.0000e+00 
          0.0000e+00 0.0000e+00 0.0000e+00 
          0.0000e+00 0.0000e+00 0.0000e+00 
          0.0000e+00 0.0000e+00 0.0000e+00 
          0.0000e+00 0.0000e+00 0.0000e+00 
          0.0000e+00 0.0000e+00 0.0000e+00 
          0.0000e+00 0.0000e+00 0.0000e+00 
          0.0000e+00 0.0000e+00 0.0000e+00 
          0.0000e+00 0.0000e+00 0.0000e+00 
          0.0000e+00 0.0000e+00 0.0000e+00 
          0.0000e+00 0.0000e+00 0.0000e+00 
          0.0000e+00 0.0000e+00 0.0000e+00 
          0.0000e+00 0.0000e+00 0.0000e+00 
          0.0000e+00 0.0000e+00 0.0000e+00 
          0.0000e+00 0.0000e+00 0.0000e+00 
          0.0000e+00 0.0000e+00 0.0000e+00 
          0.0000e+00 0.0000e+00 0.0000e+00 
          0.0000e+00 0.0000e+00 0.0000e+00 
          0.0000e+00 0.0000e+00 0.0000e+00 
          0.0000e+00 0.0000e+00 0.0000e+00 
          0.0000e+00 0.0000e+00 0.0000e+00 
          0.0000e+00 0.0000e+00 0.0000e+00 
          0.0000e+00 0.0000e+00 0.0000e+00 
          0.0000e+00 0.0000e+00 0.0000e+00 
          0.0000e+00 0.0000e+00 0.0000e+00 
          0.0000e+00 0.0000e+00 0.0000e+00 
          0.0000e+00 0.0000e+00 0.0000e+00 
          0.0000e+00 0.0000e+00 0.0000e+00 
          0.0000e+00 0.0000e+00 0.0000e+00 
          0.0000e+00 0.0000e+00 0.0000e+00 
          0.0000e+00 0.0000e+00 0.0000e+00 
          0.0000e+00 0.0000e+00 0.0000e+00 
          0.0000e+00 0.0000e+00 0.0000e+00 
          0.0000e+00 0.0000e+00 0.0000e+00 
          0.0000e+00 0.0000e+00 0.0000e+00 
          0.0000e+00 0.0000e+00 0.0000e+00 
        </DataArray>
        <DataArray type="Float64" Name="UnbalancedLoad" NumberOfComponents="3" format="ascii">
          0.0000e+00 0.0000e+00 0.0000e+00 
          0.0000e+00 0.0000e+00 0.0000e+00 
          0.0000e+00 0.0000e+00 0.0000e+00 
          0.0000e+00 0.0000e+00 0.0000e+00 
          0.0000e+00 0.0000e+00 0.0000e+00 
          0.0000e+00 0.0000e+00 0.0000e+00 
          0.0000e+00 0.0000e+00 0.0000e+00 
          0.0000e+00 0.0000e+00 0.0000e+00 
          0.0000e+00 0.0000e+00 0.0000e+00 
          0.0000e+00 0.0000e+00 0.0000e+00 
          0.0000e+00 0.0000e+00 0.0000e+00 
          0.0000e+00 0.0000e+00 0.0000e+00 
          0.0000e+00 0.0000e+00 0.0000e+00 
          0.0000e+00 0.0000e+00 0.0000e+00 
          0.0000e+00 0.0000e+00 0.0000e+00 
          0.0000e+00 0.0000e+00 0.0000e+00 
          0.0000e+00 0.0000e+00 0.0000e+00 
          0.0000e+00 0.0000e+00 0.0000e+00 
          0.0000e+00 0.0000e+00 0.0000e+00 
          0.0000e+00 0.0000e+00 0.0000e+00 
          0.0000e+00 0.0000e+00 0.0000e+00 
          0.0000e+00 0.0000e+00 0.0000e+00 
          0.0000e+00 0.0000e+00 0.0000e+00 
          0.0000e+00 0.0000e+00 0.0000e+00 
          0.0000e+00 0.0000e+00 0.0000e+00 
          0.0000e+00 0.0000e+00 0.0000e+00 
          0.0000e+00 0.0000e+00 0.0000e+00 
          0.0000e+00 0.0000e+00 0.0000e+00 
          0.0000e+00 0.0000e+00 0.0000e+00 
          0.0000e+00 0.0000e+00 0.0000e+00 
          0.0000e+00 0.0000e+00 0.0000e+00 
          0.0000e+00 0.0000e+00 0.0000e+00 
          0.0000e+00 0.0000e+00 0.0000e+00 
          0.0000e+00 0.0000e+00 0.0000e+00 
          0.0000e+00 0.0000e+00 0.0000e+00 
          0.0000e+00 0.0000e+00 0.0000e+00 
          0.0000e+00 0.0000e+00 0.0000e+00 
          0.0000e+00 0.0000e+00 0.0000e+00 
          0.0000e+00 0.0000e+00 0.0000e+00 
          0.0000e+00 0.0000e+00 0.0000e+00 
          0.0000e+00 0.0000e+00 0.0000e+00 
          0.0000e+00 0.0000e+00 0.0000e+00 
          0.0000e+00 0.0000e+00 0.0000e+00 
          0.0000e+00 0.0000e+00 0.0000e+00 
          0.0000e+00 0.0000e+00 0.0000e+00 
          0.0000e+00 0.0000e+00 0.0000e+00 
          0.0000e+00 0.0000e+00 0.0000e+00 
          0.0000e+00 0.0000e+00 0.0000e+00 
          0.0000e+00 0.0000e+00 0.0000e+00 
        </DataArray>
        <DataArray type="Float64" Name="NodeMass" NumberOfComponents="3" format="ascii">
          4.8980e-04 4.8980e-04 4.8980e-04 
          4.8980e-04 4.8980e-04 4.8980e-04 
          4.8980e-04 4.8980e-04 4.8980e-04 
          4.8980e-04 4.8980e-04 4.8980e-04 
          4.8980e-04 4.8980e-04 4.8980e-04 
          4.8980e-04 4.8980e-04 4.8980e-04 
          4.8980e-04 4.8980e-04 4.8980e-04 
          4.8980e-04 4.8980e-04 4.8980e-04 
          4.8980e-04 4.8980e-04 4.8980e-04 
          4.8980e-04 4.8980e-04 4.8980e-04 
          4.8980e-04 4.8980e-04 4.8980e-04 
          4.8980e-04 4.8980e-04 4.8980e-04 
          4.8980e-04 4.8980e-04 4.8980e-04 
          4.8980e-04 4.8980e-04 4.8980e-04 
          4.8980e-04 4.8980e-04 4.8980e-04 
          4.8980e-04 4.8980e-04 4.8980e-04 
          4.8980e-04 4.8980e-04 4.8980e-04 
          4.8980e-04 4.8980e-04 4.8980e-04 
          4.8980e-04 4.8980e-04 4.8980e-04 
          4.8980e-04 4.8980e-04 4.8980e-04 
          4.8980e-04 4.8980e-04 4.8980e-04 
          4.8980e-04 4.8980e-04 4.8980e-04 
          4.8980e-04 4.8980e-04 4.8980e-04 
          4.8980e-04 4.8980e-04 4.8980e-04 
          4.8980e-04 4.8980e-04 4.8980e-04 
          4.8980e-04 4.8980e-04 4.8980e-04 
          4.8980e-04 4.8980e-04 4.8980e-04 
          4.8980e-04 4.8980e-04 4.8980e-04 
          4.8980e-04 4.8980e-04 4.8980e-04 
          4.8980e-04 4.8980e-04 4.8980e-04 
          4.8980e-04 4.8980e-04 4.8980e-04 
          4.8980e-04 4.8980e-04 4.8980e-04 
          4.8980e-04 4.8980e-04 4.8980e-04 
          4.8980e-04 4.8980e-04 4.8980e-04 
          4.8980e-04 4.8980e-04 4.8980e-04 
          4.8980e-04 4.8980e-04 4.8980e-04 
          4.8980e-04 4.8980e-04 4.8980e-04 
          4.8980e-04 4.8980e-04 4.8980e-04 
          4.8980e-04 4.8980e-04 4.8980e-04 
          4.8980e-04 4.8980e-04 4.8980e-04 
          4.8980e-04 4.8980e-04 4.8980e-04 
          4.8980e-04 4.8980e-04 4.8980e-04 
          4.8980e-04 4.8980e-04 4.8980e-04 
          4.8980e-04 4.8980e-04 4.8980e-04 
          4.8980e-04 4.8980e-04 4.8980e-04 
          4.8980e-04 4.8980e-04 4.8980e-04 
          4.8980e-04 4.8980e-04 4.8980e-04 
          4.8980e-04 4.8980e-04 4.8980e-04 
          4.8980e-04 4.8980e-04 4.8980e-04 
        </DataArray>
      </PointData>
      <CellData>
        <DataArray type="Int64" Name="ElementTag" format="ascii">
          0
        </DataArray>
      </CellData>
    </Piece>
  </UnstructuredGrid>
</VTKFile>
