<?xml version="1.0"?>
<VTKFile type="UnstructuredGrid" version="1.0" byte_order="LittleEndian" compressor="vtkZLibDataCompressor">
  <UnstructuredGrid>
    <Piece NumberOfPoints="49" NumberOfCells="48">
      <Points>
        <DataArray type="Float64" Name="Points" NumberOfComponents="3" format="ascii">
          6.0000e-03 0.0000e+00 5.0000e-03 
          6.0000e-03 1.6667e-03 5.0000e-03 
          6.0000e-03 3.3333e-03 5.0000e-03 
          6.0000e-03 5.0000e-03 5.0000e-03 
          6.0000e-03 6.6667e-03 5.0000e-03 
          6.0000e-03 8.3333e-03 5.0000e-03 
          6.0000e-03 1.0000e-02 5.0000e-03 
          6.0000e-03 1.1667e-02 5.0000e-03 
          6.0000e-03 1.3333e-02 5.0000e-03 
          6.0000e-03 1.5000e-02 5.0000e-03 
          6.0000e-03 1.6667e-02 5.0000e-03 
          6.0000e-03 1.8333e-02 5.0000e-03 
          6.0000e-03 2.0000e-02 5.0000e-03 
          6.0000e-03 2.1667e-02 5.0000e-03 
          6.0000e-03 2.3333e-02 5.0000e-03 
          6.0000e-03 2.5000e-02 5.0000e-03 
          6.0000e-03 2.6667e-02 5.0000e-03 
          6.0000e-03 2.8333e-02 5.0000e-03 
          6.0000e-03 3.0000e-02 5.0000e-03 
          6.0000e-03 3.1667e-02 5.0000e-03 
          6.0000e-03 3.3333e-02 5.0000e-03 
          6.0000e-03 3.5000e-02 5.0000e-03 
          6.0000e-03 3.6667e-02 5.0000e-03 
          6.0000e-03 3.8333e-02 5.0000e-03 
          6.0000e-03 4.0000e-02 5.0000e-03 
          6.0000e-03 4.1667e-02 5.0000e-03 
          6.0000e-03 4.3333e-02 5.0000e-03 
          6.0000e-03 4.5000e-02 5.0000e-03 
          6.0000e-03 4.6667e-02 5.0000e-03 
          6.0000e-03 4.8333e-02 5.0000e-03 
          6.0000e-03 5.0000e-02 5.0000e-03 
          6.0000e-03 5.1667e-02 5.0000e-03 
          6.0000e-03 5.3333e-02 5.0000e-03 
          6.0000e-03 5.5000e-02 5.0000e-03 
          6.0000e-03 5.6667e-02 5.0000e-03 
          6.0000e-03 5.8333e-02 5.0000e-03 
          6.0000e-03 6.0000e-02 5.0000e-03 
          6.0000e-03 6.1667e-02 5.0000e-03 
          6.0000e-03 6.3333e-02 5.0000e-03 
          6.0000e-03 6.5000e-02 5.0000e-03 
          6.0000e-03 6.6667e-02 5.0000e-03 
          6.0000e-03 6.8333e-02 5.0000e-03 
          6.0000e-03 7.0000e-02 5.0000e-03 
          6.0000e-03 7.1667e-02 5.0000e-03 
          6.0000e-03 7.3333e-02 5.0000e-03 
          6.0000e-03 7.5000e-02 5.0000e-03 
          6.0000e-03 7.6667e-02 5.0000e-03 
          6.0000e-03 7.8333e-02 5.0000e-03 
          6.0000e-03 8.0000e-02 5.0000e-03 
        </DataArray>
      </Points>
      <Cells>
        <DataArray type="Int64" Name="connectivity" format="ascii">
          0 1 
          1 2 
          2 3 
          3 4 
          4 5 
          5 6 
          6 7 
          7 8 
          8 9 
          9 10 
          10 11 
          11 12 
          12 13 
          13 14 
          14 15 
          15 16 
          16 17 
          17 18 
          18 19 
          19 20 
          20 21 
          21 22 
          22 23 
          23 24 
          24 25 
          25 26 
          26 27 
          27 28 
          28 29 
          29 30 
          30 31 
          31 32 
          32 33 
          33 34 
          34 35 
          35 36 
          36 37 
          37 38 
          38 39 
          39 40 
          40 41 
          41 42 
          42 43 
          43 44 
          44 45 
          45 46 
          46 47 
          47 48 
        </DataArray>
        <DataArray type="Int64" Name="offsets" format="ascii">
          2
          4
          6
          8
          10
          12
          14
          16
          18
          20
          22
          24
          26
          28
          30
          32
          34
          36
          38
          40
          42
          44
          46
          48
          50
          52
          54
          56
          58
          60
          62
          64
          66
          68
          70
          72
          74
          76
          78
          80
          82
          84
          86
          88
          90
          92
          94
          96
        </DataArray>
        <DataArray type="Int64" Name="types" format="ascii">
          3
          3
          3
          3
          3
          3
          3
          3
          3
          3
          3
          3
          3
          3
          3
          3
          3
          3
          3
          3
          3
          3
          3
          3
          3
          3
          3
          3
          3
          3
          3
          3
          3
          3
          3
          3
          3
          3
          3
          3
          3
          3
          3
          3
          3
          3
          3
          3
        </DataArray>
      </Cells>
      <PointData>
        <DataArray type="Int64" Name="NodeTag" format="ascii">
          0
          1
          2
          3
          4
          5
          6
          7
          8
          9
          10
          11
          12
          13
          14
          15
          16
          17
          18
          19
          20
          21
          22
          23
          24
          25
          26
          27
          28
          29
          30
          31
          32
          33
          34
          35
          36
          37
          38
          39
          40
          41
          42
          43
          44
          45
          46
          47
          48
        </DataArray>
        <DataArray type="Float64" Name="Velocity" NumberOfComponents="3" format="ascii">
          0.0000e+00 0.0000e+00 0.0000e+00 
          0.0000e+00 0.0000e+00 0.0000e+00 
          0.0000e+00 0.0000e+00 0.0000e+00 
          0.0000e+00 0.0000e+00 0.0000e+00 
          0.0000e+00 0.0000e+00 0.0000e+00 
          0.0000e+00 0.0000e+00 0.0000e+00 
          0.0000e+00 0.0000e+00 0.0000e+00 
          0.0000e+00 0.0000e+00 0.0000e+00 
          0.0000e+00 0.0000e+00 0.0000e+00 
          0.0000e+00 0.0000e+00 0.0000e+00 
          0.0000e+00 0.0000e+00 0.0000e+00 
          0.0000e+00 0.0000e+00 0.0000e+00 
          0.0000e+00 0.0000e+00 0.0000e+00 
          0.0000e+00 0.0000e+00 0.0000e+00 
          0.0000e+00 0.0000e+00 0.0000e+00 
          0.0000e+00 0.0000e+00 0.0000e+00 
          0.0000e+00 0.0000e+00 0.0000e+00 
          0.0000e+00 0.0000e+00 0.0000e+00 
          0.0000e+00 0.0000e+00 0.0000e+00 
          0.0000e+00 0.0000e+00 0.0000e+00 
          0.0000e+00 0.0000e+00 0.0000e+00 
          0.0000e+00 0.0000e+00 0.0000e+00 
          0.0000e+00 0.0000e+00 0.0000e+00 
          0.0000e+00 0.0000e+00 0.0000e+00 
          0.0000e+00 0.0000e+00 0.0000e+00 
          0.0000e+00 0.0000e+00 0.0000e+00 
          0.0000e+00 0.0000e+00 0.0000e+00 
          0.0000e+00 0.0000e+00 0.0000e+00 
          0.0000e+00 0.0000e+00 0.0000e+00 
          0.0000e+00 0.0000e+00 0.0000e+00 
          0.0000e+00 0.0000e+00 0.0000e+00 
          0.0000e+00 0.0000e+00 0.0000e+00 
          0.0000e+00 0.0000e+00 0.0000e+00 
          0.0000e+00 0.0000e+00 0.0000e+00 
          0.0000e+00 0.0000e+00 0.0000e+00 
          0.0000e+00 0.0000e+00 0.0000e+00 
          0.0000e+00 0.0000e+00 0.0000e+00 
          0.0000e+00 0.0000e+00 0.0000e+00 
          0.0000e+00 0.0000e+00 0.0000e+00 
          0.0000e+00 0.0000e+00 0.0000e+00 
          0.0000e+00 0.0000e+00 0.0000e+00 
          0.0000e+00 0.0000e+00 0.0000e+00 
          0.0000e+00 0.0000e+00 0.0000e+00 
          0.0000e+00 0.0000e+00 0.0000e+00 
          0.0000e+00 0.0000e+00 0.0000e+00 
          0.0000e+00 0.0000e+00 0.0000e+00 
          0.0000e+00 0.0000e+00 0.0000e+00 
          0.0000e+00 0.0000e+00 0.0000e+00 
          0.0000e+00 0.0000e+00 0.0000e+00 
        </DataArray>
        <DataArray type="Float64" Name="Displacement" NumberOfComponents="3" format="ascii">
          0.0000e+00 0.0000e+00 0.0000e+00 
          0.0000e+00 0.0000e+00 0.0000e+00 
          0.0000e+00 0.0000e+00 0.0000e+00 
          0.0000e+00 0.0000e+00 0.0000e+00 
          0.0000e+00 0.0000e+00 0.0000e+00 
          0.0000e+00 0.0000e+00 0.0000e+00 
          0.0000e+00 0.0000e+00 0.0000e+00 
          0.0000e+00 0.0000e+00 0.0000e+00 
          0.0000e+00 0.0000e+00 0.0000e+00 
          0.0000e+00 0.0000e+00 0.0000e+00 
          0.0000e+00 0.0000e+00 0.0000e+00 
          0.0000e+00 0.0000e+00 0.0000e+00 
          0.0000e+00 0.0000e+00 0.0000e+00 
          0.0000e+00 0.0000e+00 0.0000e+00 
          0.0000e+00 0.0000e+00 0.0000e+00 
          0.0000e+00 0.0000e+00 0.0000e+00 
          0.0000e+00 0.0000e+00 0.0000e+00 
          0.0000e+00 0.0000e+00 0.0000e+00 
          0.0000e+00 0.0000e+00 0.0000e+00 
          0.0000e+00 0.0000e+00 0.0000e+00 
          0.0000e+00 0.0000e+00 0.0000e+00 
          0.0000e+00 0.0000e+00 0.0000e+00 
          0.0000e+00 0.0000e+00 0.0000e+00 
          0.0000e+00 0.0000e+00 0.0000e+00 
          0.0000e+00 0.0000e+00 0.0000e+00 
          0.0000e+00 0.0000e+00 0.0000e+00 
          0.0000e+00 0.0000e+00 0.0000e+00 
          0.0000e+00 0.0000e+00 0.0000e+00 
          0.0000e+00 0.0000e+00 0.0000e+00 
          0.0000e+00 0.0000e+00 0.0000e+00 
          0.0000e+00 0.0000e+00 0.0000e+00 
          0.0000e+00 0.0000e+00 0.0000e+00 
          0.0000e+00 0.0000e+00 0.0000e+00 
          0.0000e+00 0.0000e+00 0.0000e+00 
          0.0000e+00 0.0000e+00 0.0000e+00 
          0.0000e+00 0.0000e+00 0.0000e+00 
          0.0000e+00 0.0000e+00 0.0000e+00 
          0.0000e+00 0.0000e+00 0.0000e+00 
          0.0000e+00 0.0000e+00 0.0000e+00 
          0.0000e+00 0.0000e+00 0.0000e+00 
          0.0000e+00 0.0000e+00 0.0000e+00 
          0.0000e+00 0.0000e+00 0.0000e+00 
          0.0000e+00 0.0000e+00 0.0000e+00 
          0.0000e+00 0.0000e+00 0.0000e+00 
          0.0000e+00 0.0000e+00 0.0000e+00 
          0.0000e+00 0.0000e+00 0.0000e+00 
          0.0000e+00 0.0000e+00 0.0000e+00 
          0.0000e+00 0.0000e+00 0.0000e+00 
          0.0000e+00 0.0000e+00 0.0000e+00 
        </DataArray>
        <DataArray type="Float64" Name="IncrDisplacement" NumberOfComponents="3" format="ascii">
          0.0000e+00 0.0000e+00 0.0000e+00 
          0.0000e+00 0.0000e+00 0.0000e+00 
          0.0000e+00 0.0000e+00 0.0000e+00 
          0.0000e+00 0.0000e+00 0.0000e+00 
          0.0000e+00 0.0000e+00 0.0000e+00 
          0.0000e+00 0.0000e+00 0.0000e+00 
          0.0000e+00 0.0000e+00 0.0000e+00 
          0.0000e+00 0.0000e+00 0.0000e+00 
          0.0000e+00 0.0000e+00 0.0000e+00 
          0.0000e+00 0.0000e+00 0.0000e+00 
          0.0000e+00 0.0000e+00 0.0000e+00 
          0.0000e+00 0.0000e+00 0.0000e+00 
          0.0000e+00 0.0000e+00 0.0000e+00 
          0.0000e+00 0.0000e+00 0.0000e+00 
          0.0000e+00 0.0000e+00 0.0000e+00 
          0.0000e+00 0.0000e+00 0.0000e+00 
          0.0000e+00 0.0000e+00 0.0000e+00 
          0.0000e+00 0.0000e+00 0.0000e+00 
          0.0000e+00 0.0000e+00 0.0000e+00 
          0.0000e+00 0.0000e+00 0.0000e+00 
          0.0000e+00 0.0000e+00 0.0000e+00 
          0.0000e+00 0.0000e+00 0.0000e+00 
          0.0000e+00 0.0000e+00 0.0000e+00 
          0.0000e+00 0.0000e+00 0.0000e+00 
          0.0000e+00 0.0000e+00 0.0000e+00 
          0.0000e+00 0.0000e+00 0.0000e+00 
          0.0000e+00 0.0000e+00 0.0000e+00 
          0.0000e+00 0.0000e+00 0.0000e+00 
          0.0000e+00 0.0000e+00 0.0000e+00 
          0.0000e+00 0.0000e+00 0.0000e+00 
          0.0000e+00 0.0000e+00 0.0000e+00 
          0.0000e+00 0.0000e+00 0.0000e+00 
          0.0000e+00 0.0000e+00 0.0000e+00 
          0.0000e+00 0.0000e+00 0.0000e+00 
          0.0000e+00 0.0000e+00 0.0000e+00 
          0.0000e+00 0.0000e+00 0.0000e+00 
          0.0000e+00 0.0000e+00 0.0000e+00 
          0.0000e+00 0.0000e+00 0.0000e+00 
          0.0000e+00 0.0000e+00 0.0000e+00 
          0.0000e+00 0.0000e+00 0.0000e+00 
          0.0000e+00 0.0000e+00 0.0000e+00 
          0.0000e+00 0.0000e+00 0.0000e+00 
          0.0000e+00 0.0000e+00 0.0000e+00 
          0.0000e+00 0.0000e+00 0.0000e+00 
          0.0000e+00 0.0000e+00 0.0000e+00 
          0.0000e+00 0.0000e+00 0.0000e+00 
          0.0000e+00 0.0000e+00 0.0000e+00 
          0.0000e+00 0.0000e+00 0.0000e+00 
          0.0000e+00 0.0000e+00 0.0000e+00 
        </DataArray>
        <DataArray type="Float64" Name="Acceleration" NumberOfComponents="3" format="ascii">
          0.0000e+00 0.0000e+00 0.0000e+00 
          0.0000e+00 0.0000e+00 0.0000e+00 
          0.0000e+00 0.0000e+00 0.0000e+00 
          0.0000e+00 0.0000e+00 0.0000e+00 
          0.0000e+00 0.0000e+00 0.0000e+00 
          0.0000e+00 0.0000e+00 0.0000e+00 
          0.0000e+00 0.0000e+00 0.0000e+00 
          0.0000e+00 0.0000e+00 0.0000e+00 
          0.0000e+00 0.0000e+00 0.0000e+00 
          0.0000e+00 0.0000e+00 0.0000e+00 
          0.0000e+00 0.0000e+00 0.0000e+00 
          0.0000e+00 0.0000e+00 0.0000e+00 
          0.0000e+00 0.0000e+00 0.0000e+00 
          0.0000e+00 0.0000e+00 0.0000e+00 
          0.0000e+00 0.0000e+00 0.0000e+00 
          0.0000e+00 0.0000e+00 0.0000e+00 
          0.0000e+00 0.0000e+00 0.0000e+00 
          0.0000e+00 0.0000e+00 0.0000e+00 
          0.0000e+00 0.0000e+00 0.0000e+00 
          0.0000e+00 0.0000e+00 0.0000e+00 
          0.0000e+00 0.0000e+00 0.0000e+00 
          0.0000e+00 0.0000e+00 0.0000e+00 
          0.0000e+00 0.0000e+00 0.0000e+00 
          0.0000e+00 0.0000e+00 0.0000e+00 
          0.0000e+00 0.0000e+00 0.0000e+00 
          0.0000e+00 0.0000e+00 0.0000e+00 
          0.0000e+00 0.0000e+00 0.0000e+00 
          0.0000e+00 0.0000e+00 0.0000e+00 
          0.0000e+00 0.0000e+00 0.0000e+00 
          0.0000e+00 0.0000e+00 0.0000e+00 
          0.0000e+00 0.0000e+00 0.0000e+00 
          0.0000e+00 0.0000e+00 0.0000e+00 
          0.0000e+00 0.0000e+00 0.0000e+00 
          0.0000e+00 0.0000e+00 0.0000e+00 
          0.0000e+00 0.0000e+00 0.0000e+00 
          0.0000e+00 0.0000e+00 0.0000e+00 
          0.0000e+00 0.0000e+00 0.0000e+00 
          0.0000e+00 0.0000e+00 0.0000e+00 
          0.0000e+00 0.0000e+00 0.0000e+00 
          0.0000e+00 0.0000e+00 0.0000e+00 
          0.0000e+00 0.0000e+00 0.0000e+00 
          0.0000e+00 0.0000e+00 0.0000e+00 
          0.0000e+00 0.0000e+00 0.0000e+00 
          0.0000e+00 0.0000e+00 0.0000e+00 
          0.0000e+00 0.0000e+00 0.0000e+00 
          0.0000e+00 0.0000e+00 0.0000e+00 
          0.0000e+00 0.0000e+00 0.0000e+00 
          0.0000e+00 0.0000e+00 0.0000e+00 
          0.0000e+00 0.0000e+00 0.0000e+00 
        </DataArray>
        <DataArray type="Float64" Name="Pressure" format="ascii">
          0.0000e+00
          0.0000e+00
          0.0000e+00
          0.0000e+00
          0.0000e+00
          0.0000e+00
          0.0000e+00
          0.0000e+00
          0.0000e+00
          0.0000e+00
          0.0000e+00
          0.0000e+00
          0.0000e+00
          0.0000e+00
          0.0000e+00
          0.0000e+00
          0.0000e+00
          0.0000e+00
          0.0000e+00
          0.0000e+00
          0.0000e+00
          0.0000e+00
          0.0000e+00
          0.0000e+00
          0.0000e+00
          0.0000e+00
          0.0000e+00
          0.0000e+00
          0.0000e+00
          0.0000e+00
          0.0000e+00
          0.0000e+00
          0.0000e+00
          0.0000e+00
          0.0000e+00
          0.0000e+00
          0.0000e+00
          0.0000e+00
          0.0000e+00
          0.0000e+00
          0.0000e+00
          0.0000e+00
          0.0000e+00
          0.0000e+00
          0.0000e+00
          0.0000e+00
          0.0000e+00
          0.0000e+00
          0.0000e+00
        </DataArray>
        <DataArray type="Float64" Name="Reaction" NumberOfComponents="3" format="ascii">
          0.0000e+00 0.0000e+00 0.0000e+00 
          0.0000e+00 0.0000e+00 0.0000e+00 
          0.0000e+00 0.0000e+00 0.0000e+00 
          0.0000e+00 0.0000e+00 0.0000e+00 
          0.0000e+00 0.0000e+00 0.0000e+00 
          0.0000e+00 0.0000e+00 0.0000e+00 
          0.0000e+00 0.0000e+00 0.0000e+00 
          0.0000e+00 0.0000e+00 0.0000e+00 
          0.0000e+00 0.0000e+00 0.0000e+00 
          0.0000e+00 0.0000e+00 0.0000e+00 
          0.0000e+00 0.0000e+00 0.0000e+00 
          0.0000e+00 0.0000e+00 0.0000e+00 
          0.0000e+00 0.0000e+00 0.0000e+00 
          0.0000e+00 0.0000e+00 0.0000e+00 
          0.0000e+00 0.0000e+00 0.0000e+00 
          0.0000e+00 0.0000e+00 0.0000e+00 
          0.0000e+00 0.0000e+00 0.0000e+00 
          0.0000e+00 0.0000e+00 0.0000e+00 
          0.0000e+00 0.0000e+00 0.0000e+00 
          0.0000e+00 0.0000e+00 0.0000e+00 
          0.0000e+00 0.0000e+00 0.0000e+00 
          0.0000e+00 0.0000e+00 0.0000e+00 
          0.0000e+00 0.0000e+00 0.0000e+00 
          0.0000e+00 0.0000e+00 0.0000e+00 
          0.0000e+00 0.0000e+00 0.0000e+00 
          0.0000e+00 0.0000e+00 0.0000e+00 
          0.0000e+00 0.0000e+00 0.0000e+00 
          0.0000e+00 0.0000e+00 0.0000e+00 
          0.0000e+00 0.0000e+00 0.0000e+00 
          0.0000e+00 0.0000e+00 0.0000e+00 
          0.0000e+00 0.0000e+00 0.0000e+00 
          0.0000e+00 0.0000e+00 0.0000e+00 
          0.0000e+00 0.0000e+00 0.0000e+00 
          0.0000e+00 0.0000e+00 0.0000e+00 
          0.0000e+00 0.0000e+00 0.0000e+00 
          0.0000e+00 0.0000e+00 0.0000e+00 
          0.0000e+00 0.0000e+00 0.0000e+00 
          0.0000e+00 0.0000e+00 0.0000e+00 
          0.0000e+00 0.0000e+00 0.0000e+00 
          0.0000e+00 0.0000e+00 0.0000e+00 
          0.0000e+00 0.0000e+00 0.0000e+00 
          0.0000e+00 0.0000e+00 0.0000e+00 
          0.0000e+00 0.0000e+00 0.0000e+00 
          0.0000e+00 0.0000e+00 0.0000e+00 
          0.0000e+00 0.0000e+00 0.0000e+00 
          0.0000e+00 0.0000e+00 0.0000e+00 
          0.0000e+00 0.0000e+00 0.0000e+00 
          0.0000e+00 0.0000e+00 0.0000e+00 
          0.0000e+00 0.0000e+00 0.0000e+00 
        </DataArray>
        <DataArray type="Float64" Name="UnbalancedLoad" NumberOfComponents="3" format="ascii">
          0.0000e+00 0.0000e+00 0.0000e+00 
          0.0000e+00 0.0000e+00 0.0000e+00 
          0.0000e+00 0.0000e+00 0.0000e+00 
          0.0000e+00 0.0000e+00 0.0000e+00 
          0.0000e+00 0.0000e+00 0.0000e+00 
          0.0000e+00 0.0000e+00 0.0000e+00 
          0.0000e+00 0.0000e+00 0.0000e+00 
          0.0000e+00 0.0000e+00 0.0000e+00 
          0.0000e+00 0.0000e+00 0.0000e+00 
          0.0000e+00 0.0000e+00 0.0000e+00 
          0.0000e+00 0.0000e+00 0.0000e+00 
          0.0000e+00 0.0000e+00 0.0000e+00 
          0.0000e+00 0.0000e+00 0.0000e+00 
          0.0000e+00 0.0000e+00 0.0000e+00 
          0.0000e+00 0.0000e+00 0.0000e+00 
          0.0000e+00 0.0000e+00 0.0000e+00 
          0.0000e+00 0.0000e+00 0.0000e+00 
          0.0000e+00 0.0000e+00 0.0000e+00 
          0.0000e+00 0.0000e+00 0.0000e+00 
          0.0000e+00 0.0000e+00 0.0000e+00 
          0.0000e+00 0.0000e+00 0.0000e+00 
          0.0000e+00 0.0000e+00 0.0000e+00 
          0.0000e+00 0.0000e+00 0.0000e+00 
          0.0000e+00 0.0000e+00 0.0000e+00 
          0.0000e+00 0.0000e+00 0.0000e+00 
          0.0000e+00 0.0000e+00 0.0000e+00 
          0.0000e+00 0.0000e+00 0.0000e+00 
          0.0000e+00 0.0000e+00 0.0000e+00 
          0.0000e+00 0.0000e+00 0.0000e+00 
          0.0000e+00 0.0000e+00 0.0000e+00 
          0.0000e+00 0.0000e+00 0.0000e+00 
          0.0000e+00 0.0000e+00 0.0000e+00 
          0.0000e+00 0.0000e+00 0.0000e+00 
          0.0000e+00 0.0000e+00 0.0000e+00 
          0.0000e+00 0.0000e+00 0.0000e+00 
          0.0000e+00 0.0000e+00 0.0000e+00 
          0.0000e+00 0.0000e+00 0.0000e+00 
          0.0000e+00 0.0000e+00 0.0000e+00 
          0.0000e+00 0.0000e+00 0.0000e+00 
          0.0000e+00 0.0000e+00 0.0000e+00 
          0.0000e+00 0.0000e+00 0.0000e+00 
          0.0000e+00 0.0000e+00 0.0000e+00 
          0.0000e+00 0.0000e+00 0.0000e+00 
          0.0000e+00 0.0000e+00 0.0000e+00 
          0.0000e+00 0.0000e+00 0.0000e+00 
          0.0000e+00 0.0000e+00 0.0000e+00 
          0.0000e+00 0.0000e+00 0.0000e+00 
          0.0000e+00 0.0000e+00 0.0000e+00 
          0.0000e+00 0.0000e+00 0.0000e+00 
        </DataArray>
        <DataArray type="Float64" Name="NodeMass" NumberOfComponents="3" format="ascii">
          4.8980e-04 4.8980e-04 4.8980e-04 
          4.8980e-04 4.8980e-04 4.8980e-04 
          4.8980e-04 4.8980e-04 4.8980e-04 
          4.8980e-04 4.8980e-04 4.8980e-04 
          4.8980e-04 4.8980e-04 4.8980e-04 
          4.8980e-04 4.8980e-04 4.8980e-04 
          4.8980e-04 4.8980e-04 4.8980e-04 
          4.8980e-04 4.8980e-04 4.8980e-04 
          4.8980e-04 4.8980e-04 4.8980e-04 
          4.8980e-04 4.8980e-04 4.8980e-04 
          4.8980e-04 4.8980e-04 4.8980e-04 
          4.8980e-04 4.8980e-04 4.8980e-04 
          4.8980e-04 4.8980e-04 4.8980e-04 
          4.8980e-04 4.8980e-04 4.8980e-04 
          4.8980e-04 4.8980e-04 4.8980e-04 
          4.8980e-04 4.8980e-04 4.8980e-04 
          4.8980e-04 4.8980e-04 4.8980e-04 
          4.8980e-04 4.8980e-04 4.8980e-04 
          4.8980e-04 4.8980e-04 4.8980e-04 
          4.8980e-04 4.8980e-04 4.8980e-04 
          4.8980e-04 4.8980e-04 4.8980e-04 
          4.8980e-04 4.8980e-04 4.8980e-04 
          4.8980e-04 4.8980e-04 4.8980e-04 
          4.8980e-04 4.8980e-04 4.8980e-04 
          4.8980e-04 4.8980e-04 4.8980e-04 
          4.8980e-04 4.8980e-04 4.8980e-04 
          4.8980e-04 4.8980e-04 4.8980e-04 
          4.8980e-04 4.8980e-04 4.8980e-04 
          4.8980e-04 4.8980e-04 4.8980e-04 
          4.8980e-04 4.8980e-04 4.8980e-04 
          4.8980e-04 4.8980e-04 4.8980e-04 
          4.8980e-04 4.8980e-04 4.8980e-04 
          4.8980e-04 4.8980e-04 4.8980e-04 
          4.8980e-04 4.8980e-04 4.8980e-04 
          4.8980e-04 4.8980e-04 4.8980e-04 
          4.8980e-04 4.8980e-04 4.8980e-04 
          4.8980e-04 4.8980e-04 4.8980e-04 
          4.8980e-04 4.8980e-04 4.8980e-04 
          4.8980e-04 4.8980e-04 4.8980e-04 
          4.8980e-04 4.8980e-04 4.8980e-04 
          4.8980e-04 4.8980e-04 4.8980e-04 
          4.8980e-04 4.8980e-04 4.8980e-04 
          4.8980e-04 4.8980e-04 4.8980e-04 
          4.8980e-04 4.8980e-04 4.8980e-04 
          4.8980e-04 4.8980e-04 4.8980e-04 
          4.8980e-04 4.8980e-04 4.8980e-04 
          4.8980e-04 4.8980e-04 4.8980e-04 
          4.8980e-04 4.8980e-04 4.8980e-04 
          4.8980e-04 4.8980e-04 4.8980e-04 
        </DataArray>
      </PointData>
      <CellData>
        <DataArray type="Int64" Name="ElementTag" format="ascii">
          1
          2
          3
          4
          5
          6
          7
          8
          9
          10
          11
          12
          13
          14
          15
          16
          17
          18
          19
          20
          21
          22
          23
          24
          25
          26
          27
          28
          29
          30
          31
          32
          33
          34
          35
          36
          37
          38
          39
          40
          41
          42
          43
          44
          45
          46
          47
          48
        </DataArray>
      </CellData>
    </Piece>
  </UnstructuredGrid>
</VTKFile>
