/*--------------------------------*- C++ -*----------------------------------*\
| =========                 |                                                 |
| \\      /  F ield         | OpenFOAM: The Open Source CFD Toolbox           |
|  \\    /   O peration     | Version:  7.0                                   |
|   \\  /    A nd           | Web:      www.OpenFOAM.org                      |
|    \\/     M anipulation  |                                                 |
\*---------------------------------------------------------------------------*/
FoamFile
{
    version     2.0;
    format      ascii;
    class       volScalarField;
    location    "0";
    object      k;
}
// * * * * * * * * * * * * * * * * * * * * * * * * * * * * * * * * * * * * * //

#include      "ICfiles/initialConditions"

dimensions    [0 2 -2 0 0 0 0];

internalField uniform $kIC;

boundaryField
{
    fixedStart
    {
        type            inletOutlet;
        inletValue      $internalField;
        value           $internalField;
    }
	fixedEnd
    {
        type            inletOutlet;
        inletValue      $internalField;
        value           $internalField;
    }	
	fixedStartTop
    {
        type            inletOutlet;
        inletValue      $internalField;
        value           $internalField;
    }	
	fixedBottom
    {
        type            kqRWallFunction;
        value           $internalField;
    }	
	flumeFloor
    {
        type            kqRWallFunction;
        value           $internalField;
    }
    fixedRight
    {
        type            kqRWallFunction;
        value           $internalField;
    }
	fixedLeft
    {
        type            kqRWallFunction;
        value           $internalField;
    }
	interface
    {
        type            kqRWallFunction;
        value           $internalField;
    }
	fixedAtmosphere
    {
        type            inletOutlet;
        inletValue      $internalField;
        value           $internalField;
    }
}


// ************************************************************************* //
