/*--------------------------------*- C++ -*----------------------------------*\
| =========                 |                                                 |
| \\      /  F ield         | OpenFOAM: The Open Source CFD Toolbox           |
|  \\    /   O peration     | Version:  7.0                                   |
|   \\  /    A nd           | Web:      www.OpenFOAM.org                      |
|    \\/     M anipulation  |                                                 |
\*---------------------------------------------------------------------------*/
FoamFile
{
    version     2.0;
    format      ascii;
    class       volScalarField;
    location    "0";
    object      nut;
}
// * * * * * * * * * * * * * * * * * * * * * * * * * * * * * * * * * * * * * //
dimensions    [0 2 -1 0 0 0 0];
internalField uniform 0;
boundaryField
{
    fixedStart
    {
        type            nutkWallFunction;
        value           $internalField;
    }
	fixedEnd
    {
        type            nutkWallFunction;
        value           $internalField;
    }	
	fixedStartTop
    {
        type            nutkWallFunction;
        value           $internalField;
    }   
    fixedBottom
    {
        type            nutkWallFunction;
        value           $internalField;
    }   
	flumeFloor
    {
        type            nutkWallFunction;
        value           $internalField;
    }
    fixedRight
    {
        type            nutkWallFunction;
        value           $internalField;
    }
	fixedLeft
    {
        type            nutkWallFunction;
        value           $internalField;
    }
	interface
    {
        type            nutkWallFunction;
        value           $internalField;
    }

	fixedAtmosphere
    {
        type            calculated;
        value           $internalField;
    }
}


// ************************************************************************* //
